<?xml version="1.0"?>
<VTKFile type="UnstructuredGrid"  version="0.1"  >
<UnstructuredGrid>
<Piece  NumberOfPoints="618" NumberOfCells="1080">
<Points>
<DataArray  type="Float64"  NumberOfComponents="3"  format="ascii">-4.25 4 0  -4.25 -4 0  4.25 -4 0  4.25 4 0  -1.25 1 0  -0.25 0 0  -1.25 -1 0  -3.25 -1 0  -3.25 1 0  1.25 1 0  3.25 1 0  3.25 -1 0  1.25 -1 0  0.25 0 0  0 -4 0  0 4 0  -4.25 0 0  4.25 0 0  -3.25 0 0  -4.25 2 0  -4.25 -2 0  3.25 0 0  4.25 -2 0  4.25 2 0  -4.25 1 0  -4.25 -1 0  4.25 -1 0  4.25 1 0  2.125 -4 0  -2.125 -4 0  -2.125 4 0  2.125 4 0  0 -2.239583333333333 0  -1.0625 2.682291666666667 0  1.0625 2.682291666666667 0  2.732954545454545 -2.517045454545455 0  -2.652986895301826 2.487057585738185 0  -2.25 -2.3359375 0  2.732954545454545 2.517045454545455 0  -2.220446049250313e-16 1.712275864293086 0  1.0625 -4 0  -1.0625 -4 0  1.367473250008284 -2.368504187683424 0  -3.1875 -4 0  -4.25 -3 0  -0.1296853207810323 -1.120314679218968 0  -1.104177184613194 -2.774001294888289 0  -4.25 3 0  -3.1875 4 0  3.1875 -4 0  1.0625 4 0  -1.0625 4 0  0 2.912786149538867 0  3.1875 4 0  2.25 1 0  2.25 -1 0  4.25 3 0  4.25 -3 0  -3.168025852734163 -2.914855593530048 0  1.835186788703338 1.967454154770984 0  0.6113906733843583 -3.071422739535278 0  -1.774938872060195 1.910101868609392 0  -2.25 -1 0  -2.25 1 0  -3.132312635730683 -1.954144290196067 0  1.981433392649784 -3.075046883716055 0  -0.8645017377304687 -1.861306024041929 0  0.6074134196061652 -1.602057299882968 0  -0.2739244448957433 -3.08151570898844 0  0.75 0.5 0  -0.75 0.5 0  -0.8937995122115957 1.811894385777969 0  0.884082324512012 1.810811355569967 0  -1.59375 3.341145833333333 0  1.59375 3.341145833333333 0  -3.529712121366897 2.5 0  -1.903284444846377 -3.146619224730244 0  -1.75 -1.66796875 0  2.111489472208695 -1.879492626314222 0  -3.08111685970403 3.186693221250952 0  3.364382300660234 1.885617699339766 0  3.573778515491998 -2.5 0  2.903954140703144 -1.728692745946152 0  2.390142767929403 3.242602068217662 0  -2.75 1.662634663474167 0  3.372533770890645 3.13214525657131 0  3.16728417474861 -3.195057010178064 0  2.589941262541426 1.742604416426647 0  -3.525246989223928 1.724753010776072 0  0.53125 3.456393074769434 0  -0.53125 3.456393074769434 0  -2.606862098331335 -3.419315967153206 0  0 0.75 0  -2.327381224256022 3.167117555031311 0  -3.71875 -4 0  -1.790317893771425 2.639041475970867 0  -3.71875 4 0  3.735226909179794 2.5 0  -0.434689127717023 2.352426619417106 0  -3.745009551939732 -2.5 0  -0.75 -0.5 0  0.75 -0.5 0  4.25 0.5 0  3.25 0.5 0  4.25 -1.5 0  4.25 -0.5 0  3.25 -0.5 0  -3.709049205194704 -1.540950794805296 0  -4.25 -0.5 0  -3.25 -0.5 0  -4.25 0.5 0  -3.25 0.5 0  0.3806308022205874 2.312531006915977 0  1.761206624332812 2.662514594411487 0  -0.5060765330222172 1.231137932146543 0  0.5605474365462708 1.181642309638812 0  0.6855656887778322 -2.284642742762343 0  1.289320980836618 -1.685918744804048 0  3.587635667913422 -1.811465512252732 0  1.295778297634739 -3.312807108751953 0  3.71875 -4 0  -2.484718261547373 -1.66796875 0  2.54129472188067 -3.461766406157935 0  -1.584553768394408 -2.312930421172607 0  4.25 1.5 0  3.71875 4 0  4.25 3.5 0  -0.5940223816001772 -2.420151638210574 0  -0.8562891081864143 -3.379282219009797 0  -3.453125 -3.452486112007326 0  2.127009732348907 -2.486032047514898 0  -1.59375 -4 0  -2.65625 4 0  -3.662931834238117 3.076901539353532 0  0 -0.5397694439488789 0  1.75 -1 0  -3.103880145098495 2.114816279251727 0  -2.581814706610864 -2.827102548810904 0  4.25 -3.5 0  1.413547583931744 1.561783389431753 0  0.03834544098927617 -1.667993000915835 0  -0.7130888383380199 -1.276615003457198 0  3.73611063751562 -3.25 0  -3.75 -0.75 0  3.738677428252632 -1.272645143494735 0  3.75 -0.25 0  3.75 0.75 0  -3.75 0.25 0  3.677509907171241 1.394980185657518 0  0.1729724216486316 -3.448324400630145 0  0.4600609565193352 -1.022739784851008 0  2.65625 4 0  2.914663145853574 3.483761529335237 0  -4.25 3.5 0  -0.5517444534416718 2.892011263841753 0  0.5540646533827686 2.90270658464378 0  1.59375 -4 0  -1.37424348188583 -3.238005613405709 0  1.069349366464763 3.4619158840928 0  -1.069349366464763 3.4619158840928 0  -2.65625 -4 0  -0.53125 4 0  0 3.444176594402671 0  0.53125 4 0  2.65625 -4 0  1.59375 4 0  -1.59375 4 0  -0.53125 -4 0  0.53125 -4 0  1.400538445557165 2.272658812911446 0  2.212546125072832 2.359086493404626 0  2.110641017341508 1.512903708520227 0  -1.298251865999914 2.185050803358182 0  -1.370486518271877 1.53694545102918 0  -2.324422829193396 2.0304747341473 0  -3.451296905381042 3.55188349935487 0  -2.252980012983497 1.517709623472462 0  0.8314572325841179 -3.538377529121299 0  0.1651118913394702 -2.758829960694034 0  1.084171046623539 -2.82186797480777 0  -2.775042824686969 -2.338900091740216 0  -1.75 1 0  -3.75 1.224753010776072 0  3.703810778903693 -0.7608738526024619 0  3.200031682171212 -2.148071444649835 0  -2.75 -1 0  -3 -1.453494282248404 0  1.859375 -3.567610582724346 0  3.231983999099127 2.384647152984348 0  1.75 1 0  -4.25 -1.5 0  -4.25 -3.5 0  -4.25 -2.5 0  -2.75 1 0  2.75 -1 0  4.25 -2.5 0  -1.75 -1 0  -4.25 1.5 0  -4.25 2.5 0  2.75 1 0  4.25 2.5 0  3.6875 0.25 0  -3.8125 -0.25 0  -3.664134562492216 -2.996182596888396 0  3.039340426132883 1.477403214811896 0  2.896872754762841 2.986670048367758 0  -3.258366227721622 -2.429444505580982 0  2.446349413314191 -1.481576162462785 0  -3.681188252694018 0.7373765053880361 0  2.476579304073827 -2.956835371296098 0  -0.02432413470993235 1.231137932146543 0  -3.768701313157564 -2.01891287359335 0  -0.3003833714327223 -3.569391618787892 0  3.738758154515608 3.489032101672833 0  1.765125328401306 -1.507819279873149 0  -1.154609827091184 -1.474228359417639 0  -0.3782899039068293 -1.927124175896865 0  -1.0987830704712 -2.2876005584161 0  1.571527962491337 -2.811213963622433 0  3.453125 -3.618650513056585 0  -2.695779283221825 3.503022462680263 0  -0.9506183469926481 1.349169849337732 0  2.886282976328413 2.08830543919736 0  -1.859375 -3.613519447919825 0  2.196091517674023 2.822001312269779 0  -0.4331066709684581 1.885839750017772 0  -1.346579666326327 -1.896006401923806 0  0.3615381915131272 -1.976755936558648 0  3.821488887375865 1.832107028539069 0  -1.582441118860814 -2.791510074823685 0  1.783747011907793 -2.191347248790469 0  2.446726602920125 -2.174382785541248 0  1.00313605033398 1.376565418154098 0  0.4310990218857933 1.859718924919822 0  0.8431524738950877 2.273194731823086 0  3.79439950055633 2.954070419523107 0  -0.7019885456454824 -2.962688853250264 0  -1.809937825166108 1.444957047974289 0  -2.13958155756883 -2.768196505281545 0  0.8612976984758075 -1.229081800223121 0  -0.8630334387412009 2.251005472564539 0  3.321417426962666 -1.446259249210685 0  -0.5073366151708427 -0.8776512943898103 0  -3.793259760009133 2.110845711006983 0  -3.090402298858048 2.557693208058808 0  -2.247717610706491 2.710997145391222 0  -2.027243184081608 3.535216752426951 0  0.9153369981443099 -1.912568471518071 0  -0.3532759984188575 -1.502839791357869 0  -3.034134083998229 -3.330264448685832 0  1.859375 3.670572916666667 0  -1.255299096542601 3.070440031839168 0  1.255299096542601 3.070440031839168 0  2.921875 -3.661875333337763 0  3.850809893598207 -2.832606356593649 0  3.846137648733236 -2.161074698689199 0  3.154627290018481 -2.570713902241912 0  -2.117359130773687 -1.914105354596305 0  -2.117359130773687 -1.421832145403695 0  -0.2166182667981147 -2.594339128300363 0  -3 1.331317331737083 0  3.326005959697935 3.596580658075049 0  -1.197601683043599 -3.610505460419974 0  -3.889856060683448 2.720667060374939 0  -2.815848022447855 2.868208719765569 0  2.488151170525763 1.340091272643286 0  -0.01984015345470717 2.479395784383366 0  -1.983953407139114 2.270324157287136 0  3.443486976475133 -2.890195582518409 0  2.882927457718616 -2.899093911813329 0  2.535755967375144 3.616888299617402 0  1.977826951734316 3.17776613581278 0  -2.31114086362501 -3.138309084472732 0  -3.845245875189892 3.44277358595823 0  -3.844124779023461 -3.600984140212427 0  -3.63273202255171 -1.140464045103419 0  0.4256685825438592 0.7770057476315775 0  0.5 0.25 0  -0.4335625501304853 0.800687650391456 0  -1 0.75 0  -0.5 0.25 0  -0.125 0.375 0  0.7090071616509334 -2.683739213204448 0  2.241826269333066 1.953254035682167 0  -2.716207311637434 2.053646240820244 0  -3.135046077565108 1.725860417408368 0  -3.387623494611964 1.362376505388036 0  -3.323698444114522 2.875705721499792 0  -2.260619496018966 -3.622268554717983 0  0.2892748300192267 1.456467626467612 0  0.2058019989618376 -1.317000847560413 0  -0.8031267956087405 3.183702750144165 0  -2.921875 -3.708398957437165 0  0.05605170236062412 2.097542063723369 0  -3.925108109555673 1.733251805097824 0  -1.52946203820045 -1.333984375 0  3.222157718558086 2.773457380998749 0  0.8030592928274842 3.190279693453577 0  0.796875 3.728196537384717 0  0.265625 3.728196537384717 0  0.2718753184275909 3.178481371970769 0  -0.2593746815724092 3.722088297201336 0  -0.2718753184275909 3.178481371970769 0  -0.796875 3.728196537384717 0  -3.067074060966304 3.627403604812928 0  -2.370495949438301 3.705693279192516 0  -1.912578893425812 3.051839540671347 0  2.821284620673293 -2.10126004722262 0  -1 -0.75 0  1.39351036923774 3.670572916666667 0  -1.328125 3.734295535563151 0  -0.5 -0.25 0  0.3812225659848426 -0.6372342251415175 0  3.869830251596885 -3.62829620482169 0  1.488385856740025 -3.637488873017461 0  2.80237578941782 -1.369543994449923 0  1 -0.75 0  3.963145395057808 -1.75 0  -2.745637781387773 -1.953344094870445 0  -1.419661583232925 2.547121360921379 0  2.542807541797504 2.207256908599424 0  1.660446255818958 -3.256910570780324 0  0.9521578486482744 -3.19615981162048 0  -3.955499806374016 -3.238655190931554 0  1.428767536584573 -1.333838401207307 0  3.984375 4 0  2.543564155860945 2.91675373813093 0  -2.654045025260287 -1.348554065372634 0  -1.851535534560853 -2.553403479553177 0  -2.576968950851106 1.331317331737083 0  3.930113675501616 2.185653591086291 0  3.539352899584
[...]
<PointData  Scalars="f_334"> 
<DataArray  type="Float64"  Name="f_334"  format="ascii">0.0000000000000000e+00  0.0000000000000000e+00  0.0000000000000000e+00  0.0000000000000000e+00  0.0000000000000000e+00  0.0000000000000000e+00  0.0000000000000000e+00  0.0000000000000000e+00  0.0000000000000000e+00  1.4237282399179307e+01  1.4237282399179307e+01  1.4237282399179307e+01  1.4237282399179310e+01  1.4237282399179307e+01  0.0000000000000000e+00  0.0000000000000000e+00  0.0000000000000000e+00  0.0000000000000000e+00  0.0000000000000000e+00  0.0000000000000000e+00  0.0000000000000000e+00  1.4237282399179307e+01  0.0000000000000000e+00  0.0000000000000000e+00  0.0000000000000000e+00  0.0000000000000000e+00  0.0000000000000000e+00  0.0000000000000000e+00  0.0000000000000000e+00  0.0000000000000000e+00  0.0000000000000000e+00  0.0000000000000000e+00  3.7452172439543081e+00  1.3290696831497204e+00  4.2136077615308940e+00  4.5579823006186082e+00  2.9495973705073936e-01  4.5881321768179545e-01  4.5598264543810574e+00  4.8397496667819349e+00  0.0000000000000000e+00  0.0000000000000000e+00  5.7369612418487934e+00  0.0000000000000000e+00  0.0000000000000000e+00  5.1364152753239534e+00  1.2188362092731471e+00  0.0000000000000000e+00  0.0000000000000000e+00  0.0000000000000000e+00  0.0000000000000000e+00  0.0000000000000000e+00  2.3007583978223640e+00  0.0000000000000000e+00  1.4237282399179307e+01  1.4237282399179307e+01  0.0000000000000000e+00  0.0000000000000000e+00  1.4139176296974421e-01  7.9726294134854543e+00  2.5391272150364825e+00  7.1656967882381506e-01  0.0000000000000000e+00  0.0000000000000000e+00  1.4809104652797431e-01  3.0603332332663431e+00  2.0730273774000394e+00  7.4727437629362443e+00  1.6753874734329812e+00  1.4237282399179307e+01  0.0000000000000000e+00  2.0100192475451371e+00  7.4310051964345405e+00  4.6784425949645914e-01  2.1392134697542473e+00  9.4888392597791402e-02  4.5280217343477186e-01  6.2356292107049827e-01  8.4204568828937401e+00  1.2895602658592095e-01  5.3878254196737521e+00  2.4789778149449768e+00  8.1198080828281469e+00  2.3241978630653777e+00  1.8178098384042385e-01  1.5905903767639209e+00  1.7629056491904063e+00  8.7458586831980192e+00  7.1588132998951184e-02  1.4237665038771419e+00  8.5684973490345373e-01  1.6182138666485610e-01  6.4745894015063641e+00  2.9342870231617124e-01  0.0000000000000000e+00  6.9601049649831070e-01  0.0000000000000000e+00  1.9465846613657058e+00  2.6142632569099042e+00  6.3998335323381103e-02  0.0000000000000000e+00  1.4237282399179307e+01  0.0000000000000000e+00  1.4237282399179307e+01  0.0000000000000000e+00  0.0000000000000000e+00  1.4237282399179307e+01  4.2021612918853576e-02  0.0000000000000000e+00  0.0000000000000000e+00  0.0000000000000000e+00  0.0000000000000000e+00  4.4020224297210877e+00  4.6682578555900296e+00  3.1311620099274515e+00  9.0890165191710501e+00  5.1058186976638202e+00  9.0600557163252446e+00  4.4337341001875714e+00  2.1729574284576545e+00  0.0000000000000000e+00  2.5161909699551521e-01  1.5508375461810706e+00  9.2627905045775438e-01  0.0000000000000000e+00  0.0000000000000000e+00  0.0000000000000000e+00  2.2353933227175453e+00  7.9045545683156448e-01  5.5540160743385331e-02  5.3601228599280226e+00  0.0000000000000000e+00  0.0000000000000000e+00  6.1278053687900569e-02  6.7206272778568783e+00  1.4237282399179307e+01  1.6457172346125498e-01  2.8922042266634007e-01  0.0000000000000000e+00  1.0032015961296690e+01  5.0510111405345999e+00  2.3033226796612971e+00  8.3373481243628544e-01  5.4872542639133387e-03  5.4828073593549460e+00  6.9961650828768382e+00  6.6336379212246017e+00  1.6134682937650839e-03  5.4684386651123615e+00  1.2474586349538626e+00  9.1732373509356524e+00  0.0000000000000000e+00  1.2741377053455119e+00  0.0000000000000000e+00  1.6851433013161456e+00  2.9660089765462581e+00  0.0000000000000000e+00  6.4995670229416269e-01  1.6231466813083357e+00  5.9065203009514755e-01  0.0000000000000000e+00  0.0000000000000000e+00  1.1709226308353180e+00  0.0000000000000000e+00  0.0000000000000000e+00  0.0000000000000000e+00  0.0000000000000000e+00  0.0000000000000000e+00  0.0000000000000000e+00  6.1762445273539948e+00  5.8715078045734286e+00  1.0667940964991132e+01  1.2639439027283135e+00  9.2351495978838449e-01  4.0216756341544402e-01  4.6988976520585160e-02  2.7432388003203900e-01  1.3226536377298272e+00  2.8616883308697125e+00  3.7416754242705021e+00  2.5517149826498742e-01  0.0000000000000000e+00  2.1361932410450576e-02  7.3012532563912993e+00  4.8891623905858053e+00  0.0000000000000000e+00  9.8831772882589153e-02  1.3832647421619666e+00  3.8923920296994510e+00  1.4237282399179307e+01  0.0000000000000000e+00  0.0000000000000000e+00  0.0000000000000000e+00  0.0000000000000000e+00  1.4237282399179307e+01  0.0000000000000000e+00  0.0000000000000000e+00  0.0000000000000000e+00  0.0000000000000000e+00  1.4237282399179307e+01  0.0000000000000000e+00  7.8976266431022450e+00  1.3846918168161856e-03  6.3503337791303599e-02  9.4074675393665554e+00  2.6682111721381414e+00  1.4271145965165524e-01  1.0681315248659322e+01  6.2999176399764073e-03  3.2273899027774759e+00  5.6026923669992037e+00  5.5445215993968795e-02  7.7950791715709367e-01  5.3061101011668965e-01  1.0676044369907945e+01  1.2516498192631009e+00  3.2691793738874222e+00  1.5272102151783238e+00  4.0405195924941424e+00  6.2678841605094193e-01  1.2786442893581190e-01  1.5921397439100033e+00  6.1533409556832872e+00  2.2675182851517717e-01  3.9159539160965373e+00  3.1666389807111983e+00  1.1852902145269124e+00  5.3352412078286884e+00  2.9127929838239082e+00  7.9197771212344703e-01  6.7882134316998028e+00  6.5406860228334303e+00  1.0134202695676825e+01  5.9183762249014951e+00  5.4261652102186630e+00  1.0883799587053016e+00  1.4324397022827344e+00  4.2723194182600682e-01  4.6950563728010214e-01  1.0390075586248503e+01  1.9231068969013052e+00  8.2702214038225517e+00  2.7417983517102709e+00  5.4201780274760185e-02  1.7493099587425548e-01  4.2956959019320778e-01  2.3232202987705669e-01  7.0703591829399706e+00  3.7649435022512781e+00  1.1589571597427781e-01  1.0514641465024879e+00  8.4758489005020510e-01  2.9701947262210218e+00  8.2072530135556176e-01  1.1078606730701714e+00  2.0647544637160413e+00  3.5201506196130041e+00  4.8031192479446472e-01  2.7574441182231707e-01  2.6223253415983767e+00  7.3622082163190244e-02  7.4799981805700799e-01  3.9036819310859755e-01  4.2885779444851654e-02  2.1827286933969281e-01  1.1628022785550899e+01  3.1903500405474476e+00  6.1258645036011106e-01  1.9738696087809646e+00  2.9667466291339841e+00  1.1029842915086108e+00  2.6945101011750388e+00  3.0839344300338328e-01  2.6145745745351816e-02  1.9457000865154141e-02  2.1647467619536776e-02  9.9555765078202327e+00  1.4237282399179307e+01  3.0426407110689242e+00  0.0000000000000000e+00  0.0000000000000000e+00  5.2173126419554521e+00  3.8144411187355751e+00  7.9366268118813208e+00  2.5634142127582615e-01  1.2229271869652086e-01  4.9867383034042902e-02  1.1698845866647570e-01  1.5719439893452436e-01  6.6577474836029644e+00  6.6761491738442365e+00  1.0634996203283131e+00  6.0594546455652196e-02  4.1899858591756267e+00  2.9862930897912827e-02  5.0243297514050522e-01  2.7390157022298487e+00  2.3317038945372501e+00  7.6596123503020441e-01  6.4228405724587512e-01  1.9629750354512372e+00  5.1383844267013612e-01  1.5016779631377004e+00  3.6394883409359985e-01  6.3770156661303631e-02  1.0754569117072509e-01  4.8830183198196037e-01  6.2526735516719354e+00  0.0000000000000000e+00  1.0388655461021425e+00  2.4206373543423859e-01  0.0000000000000000e+00  1.0352596450576117e+01  3.0018143517102702e-01  1.1500810497960270e+00  1.1020327791026718e+01  1.4237282399179307e+01  2.1162753673118511e+00  2.3542683713697082e-01  1.0317157307669695e+00  6.2465159474932772e+00  2.4264785690460244e+00  2.4035331693535302e+00  2.4962322861641628e-02  1.1578140843193525e+01  0.0000000000000000e+00  3.3176110367813227e+00  1.1557569085238378e-01  6.6954527926374952e-01  1.2465639797758435e-01  1.6084927855840199e+00  3.4139046787221949e+00  5.6937547209980836e-02  1.5009939100373779e-02  3.2901661755063896e+00  1.4237282399179307e+01  1.8627625879975749e+00  8.0071591241529863e+00  3.3528522328126760e-02  8.3977908863535705e-02  2.3532786020357032e-02  7.8846722305543029e+00  4.2138157393223352e-01  1.4237282399179307e+01  9.4945045825703875e+00  7.4869586553112182e+00  4.0094642628514574e+00  7.2484155492516900e+00  1.1830300942312272e+01  5.0199076073034166e-01  4.2110406053510685e+00  3.3511794618956441e+00  6.1706486756314547e+00  1.1518129622979227e+01  3.8616388007769933e+00  1.9874622094290642e-01  1.0317272302892926e-01  2.6159751419021906e+00  6.7963483749094467e+00  8.4257639214334201e+00  4.1016234700673753e+00  6.5239604464155587e-01  8.8256636735133132e-01  1.1005994573922768e+00  1.9731088408237105e+00  1.5729726764226959e+00  1.0361840987754992e-01  0.0000000000000000e+00  6.3698884419746653e+00  7.2874370239296593e-01  5.8835889701352651e+00  8.9034429453217587e+00  4.3029631109087491e-01  8.6006563307097146e+00  1.4446132438962196e+00  3.0673241983706391e-02  2.0026939743900054e+00  2.3900811271509532e+00  1.9124402503971288e-01  1.2811700646712498e+00  2.3432481691860279e+00  8.3190552410898921e-01  1.1324446791299647e+00  1.5625913263680928e+00  1.0080846115077915e+00  2.5274776390150822e-01  2.6242750284971224e+00  2.2966213700975396e-01  0.0000000000000000e+00  4.0570900307895846e-01  5.3464108296823607e+00  9.3429817846650290e-02  1.1556676030428237e+00  9.5442203925009395e-01  1.0555620815152977e+00  8.1092178702688820e+00  7.4616307098110057e-01  3.5243930786270043e+00  1.8470629036952615e-01  4.3252361639705752e+00  7.2024846036441401e+00  0.0000000000000000e+00  7.4739493076465564e+00  1.4237282399179307e+01  7.1598638132853445e+00  3.5982733818028872e-01  1.4237282399179307e+01  3.0972322533010419e+00  1.1817033755827595e+01  8.2307115043466217e-03  0.0000000000000000e+00  2.8285953134042283e+00  2.0781706599443970e+00  1.6627643871188291e+00  2.9917383567152056e+00  4.6846998512196636e-01  4.6408916773891864e+00  3.7844585856916101e-02  2.5627119944397880e-03  0.0000000000000000e+00  2.3355404519770570e-03  0.0000000000000000e+00  4.5573258506525942e+00  0.0000000000000000e+00  3.6220154110867431e+00  1.0467821489812076e-03  4.3261545879715491e-01  3.8045376276769627e+00  4.4757892450635683e+00  1.9455817818573140e+00  2.5767574138323752e+00  9.7407790393712015e-02  4.4463742221481202e-02  2.3517108586459137e-02  6.7772775812864428e+00  0.0000000000000000e+00  3.7043247326624384e+00  1.1504859396644903e+01  1.1012089180028330e+00  3.5364654863772995e+00  2.0351077313672516e+00  1.3219491751815606e+00  2.0102886294534352e+00  2.5682617460593794e-02  8.1930672581894708e+00  4.6724791117686841e+00  3.9391708309142137e+00  2.8709792181356220e-01  1.0029489425125711e+01  3.9034261108622954e+00  0.0000000000000000e+00  3.6736181722065731e-01  4.3544380499308994e+00  3.8475199229914769e-01  8.9249063437660592e-02  9.7277516903306385e+00  9.3284855918583764e-01  1.0347522853077605e-01  3.0245245835598916e-01  7.9042277573216468e-02  1.1132513109382446e+01  8.3899624268367567e+00  1.1660249681910122e+01  2.2684177872515660e-01  5.9360439853169866e-01  5.5260202956986104e+00  8.8237313606220710e-02  1.1306590187435290e+01  4.6391471144850778e+00  5.9791934769097399e-01  1.3857402062313882e+00  1.8132643469642111e+00  1.1427799860814149e+01  1.7243439626941584e-01  4.7737592111977252e+00  8.4437891846544707e-03  6.2586225807856766e-01  0.0000000000000000e+00  1.0334882837273541e-02  5.1046620998707635e+00  6.1301259556342789e+00  4.5479966362818063e+00  3.0575584007712000e+00  9.2767282247539684e-01  0.0000000000000000e+00  3.6454367836105295e-01  1.1386862228052390e+00  0.0000000000000000e+00  1.8576448254621840e-02  0.0000000000000000e+00  3.1711866906335531e+00  1.4237282399179307e+01  0.0000000000000000e+00  0.0000000000000000e+00  7.3652180855308658e-01  1.0159235339132108e+01  2.0265388858964276e-01  0.0000000000000000e+00  1.3626404947128610e+00  2.5302997830492666e+00  3.7123713053885838e+00  0.0000000000000000e+00  0.0000000000000000e+00  2.8077251016967791e-01  5.3093396838471008e-01  0.0000000000000000e+00  1.7501444274176620e-01  2.4762308360254295e+00  4.3014893715356290e+00  9.1066970605927402e+00  2.4718874424706998e+00  1.0184779901099821e+01  1.4237282399179307e+01  1.4237282399179307e+01  3.6169369053541685e+00  2.4076622338092975e-03  2.5784322996099873e-03  6.8531248278351081e-03  9.2838386860429111e-04  9.8669627172490877e+00  1.4237282399179307e+01  9.7571294907641839e+00  9.6694562211722843e+00  1.0310267783176412e-03  3.4288344336986909e+00  7.2453607420714827e-01  5.5740259304009776e-01  5.8163629907985992e-01  6.0265001954296427e+00  5.5324163332529794e+00  3.2477327861144656e-01  0.0000000000000000e+00  7.1771356611847672e+00  2.7407319318950263e+00  0.0000000000000000e+00  0.0000000000000000e+00  3.3747869294786375e+00  1.1869761903411554e+01  3.7952177843531540e+00  6.7810804123417467e-01  1.5012903424071624e+00  1.4791542526177173e+00  7.1877355180172697e-01  1.3600658745461631e+00  3.4463282422426502e+00  9.7935289656728486e-01  4.3192907734485066e-02  1.9250514348042005e-02  3.5599167425315459e-01  2.4069989965335792e-01  5.8191374131067918e-02  4.8413430557321245e-02  2.2937466619023699e+00  2.5115540305979724e+00  3.3150050174170138e+00  6.9366049900845794e-01  5.1136903304048973e+00  1.3004381351170990e-01  2.1308060437957979e-01  0.0000000000000000e+00  8.1135211140505981e-01  1.8697300808485633e+00  7.1671120147634593e-01  4.7803655969976500e-01  1.5359109909976929e+00  8.9314015185210049e-01  1.0030460454059684e+01  4.2637493623581185e-01  9.0050377471209564e-01  1.1550283393255295e-01  1.3459836952036133e+00  7.0110327556491576e+00  1.8656252072651218e+00  3.5943260113935693e+00  4.6732257943020139e+00  3.1151178957114660e+00  1.3604715895262740e-01  2.0178021568050437e-02  0.0000000000000000e+00  1.0502519475033700e+00  4.8835981949849527e+00  1.8157177328821261e-01  0.0000000000000000e+00  0.0000000000000000e+00  9.4229665267117468e+00  1.2518605073510738e+01  1.7293847089109959e+00  1.0224306960091760e+00  1.2738491989514880e+00  2.1440730134891637e+00  2.9588220387587605e-01  1.3077623537015040e+00  0.0000000000000000e+00  0.0000000000000000e+00  0.0000000000000000e+00  0.0000000000000000e+00  0.0000000000000000e+00  0.0000000000000000e+00  0.0000000000000000e+00  0.0000000000000000e+00  0.0000000000000000e+00  0.0000000000000000e+00  0.0000000000000000e+00  6.9193473304645159e-01  0.0000000000000000e+00  0.0000000000000000e+00  0.0000000000000000e+00  0.0000000000000000e+00  0.0000000000000000e+00  0.0000000000000000e+00  0.0000000000000000e+00  0.0000000000000000e+00  6.9078256375134073e+00  5.6026550487204823e+00  7.0151129279660633e+00  7.8848976056727365e+00  0.0000000000000000e+00  0.0000000000000000e+00  </DataArray> 
</PointData> 
</Piece>
</UnstructuredGrid>
</VTKFile>