<?xml version="1.0"?>
<VTKFile type="UnstructuredGrid"  version="0.1"  >
<UnstructuredGrid>
<Piece  NumberOfPoints="618" NumberOfCells="1080">
<Points>
<DataArray  type="Float64"  NumberOfComponents="3"  format="ascii">-4.25 4 0  -4.25 -4 0  4.25 -4 0  4.25 4 0  -1.25 1 0  -0.25 0 0  -1.25 -1 0  -3.25 -1 0  -3.25 1 0  1.25 1 0  3.25 1 0  3.25 -1 0  1.25 -1 0  0.25 0 0  0 -4 0  0 4 0  -4.25 0 0  4.25 0 0  -3.25 0 0  -4.25 2 0  -4.25 -2 0  3.25 0 0  4.25 -2 0  4.25 2 0  -4.25 1 0  -4.25 -1 0  4.25 -1 0  4.25 1 0  2.125 -4 0  -2.125 -4 0  -2.125 4 0  2.125 4 0  0 -2.239583333333333 0  -1.0625 2.682291666666667 0  1.0625 2.682291666666667 0  2.732954545454545 -2.517045454545455 0  -2.652986895301826 2.487057585738185 0  -2.25 -2.3359375 0  2.732954545454545 2.517045454545455 0  -2.220446049250313e-16 1.712275864293086 0  1.0625 -4 0  -1.0625 -4 0  1.367473250008284 -2.368504187683424 0  -3.1875 -4 0  -4.25 -3 0  -0.1296853207810323 -1.120314679218968 0  -1.104177184613194 -2.774001294888289 0  -4.25 3 0  -3.1875 4 0  3.1875 -4 0  1.0625 4 0  -1.0625 4 0  0 2.912786149538867 0  3.1875 4 0  2.25 1 0  2.25 -1 0  4.25 3 0  4.25 -3 0  -3.168025852734163 -2.914855593530048 0  1.835186788703338 1.967454154770984 0  0.6113906733843583 -3.071422739535278 0  -1.774938872060195 1.910101868609392 0  -2.25 -1 0  -2.25 1 0  -3.132312635730683 -1.954144290196067 0  1.981433392649784 -3.075046883716055 0  -0.8645017377304687 -1.861306024041929 0  0.6074134196061652 -1.602057299882968 0  -0.2739244448957433 -3.08151570898844 0  0.75 0.5 0  -0.75 0.5 0  -0.8937995122115957 1.811894385777969 0  0.884082324512012 1.810811355569967 0  -1.59375 3.341145833333333 0  1.59375 3.341145833333333 0  -3.529712121366897 2.5 0  -1.903284444846377 -3.146619224730244 0  -1.75 -1.66796875 0  2.111489472208695 -1.879492626314222 0  -3.08111685970403 3.186693221250952 0  3.364382300660234 1.885617699339766 0  3.573778515491998 -2.5 0  2.903954140703144 -1.728692745946152 0  2.390142767929403 3.242602068217662 0  -2.75 1.662634663474167 0  3.372533770890645 3.13214525657131 0  3.16728417474861 -3.195057010178064 0  2.589941262541426 1.742604416426647 0  -3.525246989223928 1.724753010776072 0  0.53125 3.456393074769434 0  -0.53125 3.456393074769434 0  -2.606862098331335 -3.419315967153206 0  0 0.75 0  -2.327381224256022 3.167117555031311 0  -3.71875 -4 0  -1.790317893771425 2.639041475970867 0  -3.71875 4 0  3.735226909179794 2.5 0  -0.434689127717023 2.352426619417106 0  -3.745009551939732 -2.5 0  -0.75 -0.5 0  0.75 -0.5 0  4.25 0.5 0  3.25 0.5 0  4.25 -1.5 0  4.25 -0.5 0  3.25 -0.5 0  -3.709049205194704 -1.540950794805296 0  -4.25 -0.5 0  -3.25 -0.5 0  -4.25 0.5 0  -3.25 0.5 0  0.3806308022205874 2.312531006915977 0  1.761206624332812 2.662514594411487 0  -0.5060765330222172 1.231137932146543 0  0.5605474365462708 1.181642309638812 0  0.6855656887778322 -2.284642742762343 0  1.289320980836618 -1.685918744804048 0  3.587635667913422 -1.811465512252732 0  1.295778297634739 -3.312807108751953 0  3.71875 -4 0  -2.484718261547373 -1.66796875 0  2.54129472188067 -3.461766406157935 0  -1.584553768394408 -2.312930421172607 0  4.25 1.5 0  3.71875 4 0  4.25 3.5 0  -0.5940223816001772 -2.420151638210574 0  -0.8562891081864143 -3.379282219009797 0  -3.453125 -3.452486112007326 0  2.127009732348907 -2.486032047514898 0  -1.59375 -4 0  -2.65625 4 0  -3.662931834238117 3.076901539353532 0  0 -0.5397694439488789 0  1.75 -1 0  -3.103880145098495 2.114816279251727 0  -2.581814706610864 -2.827102548810904 0  4.25 -3.5 0  1.413547583931744 1.561783389431753 0  0.03834544098927617 -1.667993000915835 0  -0.7130888383380199 -1.276615003457198 0  3.73611063751562 -3.25 0  -3.75 -0.75 0  3.738677428252632 -1.272645143494735 0  3.75 -0.25 0  3.75 0.75 0  -3.75 0.25 0  3.677509907171241 1.394980185657518 0  0.1729724216486316 -3.448324400630145 0  0.4600609565193352 -1.022739784851008 0  2.65625 4 0  2.914663145853574 3.483761529335237 0  -4.25 3.5 0  -0.5517444534416718 2.892011263841753 0  0.5540646533827686 2.90270658464378 0  1.59375 -4 0  -1.37424348188583 -3.238005613405709 0  1.069349366464763 3.4619158840928 0  -1.069349366464763 3.4619158840928 0  -2.65625 -4 0  -0.53125 4 0  0 3.444176594402671 0  0.53125 4 0  2.65625 -4 0  1.59375 4 0  -1.59375 4 0  -0.53125 -4 0  0.53125 -4 0  1.400538445557165 2.272658812911446 0  2.212546125072832 2.359086493404626 0  2.110641017341508 1.512903708520227 0  -1.298251865999914 2.185050803358182 0  -1.370486518271877 1.53694545102918 0  -2.324422829193396 2.0304747341473 0  -3.451296905381042 3.55188349935487 0  -2.252980012983497 1.517709623472462 0  0.8314572325841179 -3.538377529121299 0  0.1651118913394702 -2.758829960694034 0  1.084171046623539 -2.82186797480777 0  -2.775042824686969 -2.338900091740216 0  -1.75 1 0  -3.75 1.224753010776072 0  3.703810778903693 -0.7608738526024619 0  3.200031682171212 -2.148071444649835 0  -2.75 -1 0  -3 -1.453494282248404 0  1.859375 -3.567610582724346 0  3.231983999099127 2.384647152984348 0  1.75 1 0  -4.25 -1.5 0  -4.25 -3.5 0  -4.25 -2.5 0  -2.75 1 0  2.75 -1 0  4.25 -2.5 0  -1.75 -1 0  -4.25 1.5 0  -4.25 2.5 0  2.75 1 0  4.25 2.5 0  3.6875 0.25 0  -3.8125 -0.25 0  -3.664134562492216 -2.996182596888396 0  3.039340426132883 1.477403214811896 0  2.896872754762841 2.986670048367758 0  -3.258366227721622 -2.429444505580982 0  2.446349413314191 -1.481576162462785 0  -3.681188252694018 0.7373765053880361 0  2.476579304073827 -2.956835371296098 0  -0.02432413470993235 1.231137932146543 0  -3.768701313157564 -2.01891287359335 0  -0.3003833714327223 -3.569391618787892 0  3.738758154515608 3.489032101672833 0  1.765125328401306 -1.507819279873149 0  -1.154609827091184 -1.474228359417639 0  -0.3782899039068293 -1.927124175896865 0  -1.0987830704712 -2.2876005584161 0  1.571527962491337 -2.811213963622433 0  3.453125 -3.618650513056585 0  -2.695779283221825 3.503022462680263 0  -0.9506183469926481 1.349169849337732 0  2.886282976328413 2.08830543919736 0  -1.859375 -3.613519447919825 0  2.196091517674023 2.822001312269779 0  -0.4331066709684581 1.885839750017772 0  -1.346579666326327 -1.896006401923806 0  0.3615381915131272 -1.976755936558648 0  3.821488887375865 1.832107028539069 0  -1.582441118860814 -2.791510074823685 0  1.783747011907793 -2.191347248790469 0  2.446726602920125 -2.174382785541248 0  1.00313605033398 1.376565418154098 0  0.4310990218857933 1.859718924919822 0  0.8431524738950877 2.273194731823086 0  3.79439950055633 2.954070419523107 0  -0.7019885456454824 -2.962688853250264 0  -1.809937825166108 1.444957047974289 0  -2.13958155756883 -2.768196505281545 0  0.8612976984758075 -1.229081800223121 0  -0.8630334387412009 2.251005472564539 0  3.321417426962666 -1.446259249210685 0  -0.5073366151708427 -0.8776512943898103 0  -3.793259760009133 2.110845711006983 0  -3.090402298858048 2.557693208058808 0  -2.247717610706491 2.710997145391222 0  -2.027243184081608 3.535216752426951 0  0.9153369981443099 -1.912568471518071 0  -0.3532759984188575 -1.502839791357869 0  -3.034134083998229 -3.330264448685832 0  1.859375 3.670572916666667 0  -1.255299096542601 3.070440031839168 0  1.255299096542601 3.070440031839168 0  2.921875 -3.661875333337763 0  3.850809893598207 -2.832606356593649 0  3.846137648733236 -2.161074698689199 0  3.154627290018481 -2.570713902241912 0  -2.117359130773687 -1.914105354596305 0  -2.117359130773687 -1.421832145403695 0  -0.2166182667981147 -2.594339128300363 0  -3 1.331317331737083 0  3.326005959697935 3.596580658075049 0  -1.197601683043599 -3.610505460419974 0  -3.889856060683448 2.720667060374939 0  -2.815848022447855 2.868208719765569 0  2.488151170525763 1.340091272643286 0  -0.01984015345470717 2.479395784383366 0  -1.983953407139114 2.270324157287136 0  3.443486976475133 -2.890195582518409 0  2.882927457718616 -2.899093911813329 0  2.535755967375144 3.616888299617402 0  1.977826951734316 3.17776613581278 0  -2.31114086362501 -3.138309084472732 0  -3.845245875189892 3.44277358595823 0  -3.844124779023461 -3.600984140212427 0  -3.63273202255171 -1.140464045103419 0  0.4256685825438592 0.7770057476315775 0  0.5 0.25 0  -0.4335625501304853 0.800687650391456 0  -1 0.75 0  -0.5 0.25 0  -0.125 0.375 0  0.7090071616509334 -2.683739213204448 0  2.241826269333066 1.953254035682167 0  -2.716207311637434 2.053646240820244 0  -3.135046077565108 1.725860417408368 0  -3.387623494611964 1.362376505388036 0  -3.323698444114522 2.875705721499792 0  -2.260619496018966 -3.622268554717983 0  0.2892748300192267 1.456467626467612 0  0.2058019989618376 -1.317000847560413 0  -0.8031267956087405 3.183702750144165 0  -2.921875 -3.708398957437165 0  0.05605170236062412 2.097542063723369 0  -3.925108109555673 1.733251805097824 0  -1.52946203820045 -1.333984375 0  3.222157718558086 2.773457380998749 0  0.8030592928274842 3.190279693453577 0  0.796875 3.728196537384717 0  0.265625 3.728196537384717 0  0.2718753184275909 3.178481371970769 0  -0.2593746815724092 3.722088297201336 0  -0.2718753184275909 3.178481371970769 0  -0.796875 3.728196537384717 0  -3.067074060966304 3.627403604812928 0  -2.370495949438301 3.705693279192516 0  -1.912578893425812 3.051839540671347 0  2.821284620673293 -2.10126004722262 0  -1 -0.75 0  1.39351036923774 3.670572916666667 0  -1.328125 3.734295535563151 0  -0.5 -0.25 0  0.3812225659848426 -0.6372342251415175 0  3.869830251596885 -3.62829620482169 0  1.488385856740025 -3.637488873017461 0  2.80237578941782 -1.369543994449923 0  1 -0.75 0  3.963145395057808 -1.75 0  -2.745637781387773 -1.953344094870445 0  -1.419661583232925 2.547121360921379 0  2.542807541797504 2.207256908599424 0  1.660446255818958 -3.256910570780324 0  0.9521578486482744 -3.19615981162048 0  -3.955499806374016 -3.238655190931554 0  1.428767536584573 -1.333838401207307 0  3.984375 4 0  2.543564155860945 2.91675373813093 0  -2.654045025260287 -1.348554065372634 0  -1.851535534560853 -2.553403479553177 0  -2.576968950851106 1.331317331737083 0  3.930113675501616 2.185653591086291 0  3.539352899584
[...]
<PointData  Scalars="f_691"> 
<DataArray  type="Float64"  Name="f_691"  format="ascii">0.0000000000000000e+00  0.0000000000000000e+00  0.0000000000000000e+00  0.0000000000000000e+00  0.0000000000000000e+00  0.0000000000000000e+00  0.0000000000000000e+00  0.0000000000000000e+00  0.0000000000000000e+00  3.1525411026754174e+01  3.1525411026754174e+01  3.1525411026754178e+01  3.1525411026754181e+01  3.1525411026754178e+01  0.0000000000000000e+00  0.0000000000000000e+00  0.0000000000000000e+00  0.0000000000000000e+00  0.0000000000000000e+00  0.0000000000000000e+00  0.0000000000000000e+00  3.1525411026754174e+01  0.0000000000000000e+00  0.0000000000000000e+00  0.0000000000000000e+00  0.0000000000000000e+00  0.0000000000000000e+00  0.0000000000000000e+00  0.0000000000000000e+00  0.0000000000000000e+00  0.0000000000000000e+00  0.0000000000000000e+00  8.2929810401845430e+00  2.9429400126886693e+00  9.3301314719612662e+00  1.0092675094226918e+01  6.5312513204092337e-01  1.0159435534382615e+00  1.0096758577558056e+01  1.0716588547874290e+01  0.0000000000000000e+00  0.0000000000000000e+00  1.2703271321236617e+01  0.0000000000000000e+00  0.0000000000000000e+00  1.1373490966788756e+01  2.6988516062476835e+00  0.0000000000000000e+00  0.0000000000000000e+00  0.0000000000000000e+00  0.0000000000000000e+00  0.0000000000000000e+00  5.0945364523209529e+00  0.0000000000000000e+00  3.1525411026754174e+01  3.1525411026754174e+01  0.0000000000000000e+00  0.0000000000000000e+00  3.1308176086157635e-01  1.7653679415574942e+01  5.6223531190093574e+00  1.5866900031098772e+00  0.0000000000000000e+00  0.0000000000000000e+00  3.2791588874051458e-01  6.7764521593754727e+00  4.5902749071000883e+00  1.6546789760787412e+01  3.7097865483158894e+00  3.1525411026754178e+01  0.0000000000000000e+00  4.4507569052785190e+00  1.6454368649247922e+01  1.0359408603135885e+00  4.7368298258844064e+00  2.1011001218082401e-01  1.0026333840341377e+00  1.3807464680846753e+00  1.8645297383550432e+01  2.8554548744025371e-01  1.1930184857849021e+01  5.4891651616638759e+00  1.7979575040548038e+01  5.1464381253590519e+00  4.0251503564665314e-01  3.5220215485486808e+00  3.9035767946358977e+00  1.9365829941367043e+01  1.5851658021196352e-01  3.1526258300136738e+00  1.8973101272862205e+00  3.5831878475789575e-01  1.4336590817621245e+01  6.4973498370009408e-01  0.0000000000000000e+00  1.5411660993891170e+00  0.0000000000000000e+00  4.3102946073097801e+00  5.7887257831576493e+00  1.4171059964462959e-01  0.0000000000000000e+00  3.1525411026754174e+01  0.0000000000000000e+00  3.1525411026754174e+01  0.0000000000000000e+00  0.0000000000000000e+00  3.1525411026754174e+01  9.3047857177461529e-02  0.0000000000000000e+00  0.0000000000000000e+00  0.0000000000000000e+00  0.0000000000000000e+00  9.7473353800967004e+00  1.0336856680235067e+01  6.9332873076965003e+00  2.0125679435307330e+01  1.1305741401969888e+01  2.0061551943291615e+01  9.8175540789867668e+00  4.8115485915848089e+00  0.0000000000000000e+00  5.5715657191864121e-01  3.4339974236866553e+00  2.0510464688707426e+00  0.0000000000000000e+00  0.0000000000000000e+00  0.0000000000000000e+00  4.9497995003031399e+00  1.7502942258413212e+00  1.2298178450321040e-01  1.1868843475554911e+01  0.0000000000000000e+00  0.0000000000000000e+00  1.3568711888035140e-01  1.4881388972397376e+01  3.1525411026754178e+01  3.6440881623563637e-01  6.4041665018975324e-01  0.0000000000000000e+00  2.2213749628585532e+01  1.1184381811183757e+01  5.1002145049643035e+00  1.8461270846803459e+00  1.2150348727236681e-02  1.2140502010000239e+01  1.5491508397798711e+01  1.4688769682711623e+01  3.5726797933369739e-03  1.2108685615605948e+01  2.7622298345406966e+00  2.0312168419928945e+01  0.0000000000000000e+00  2.8213049189793487e+00  0.0000000000000000e+00  3.7313887386286093e+00  6.5675913052095760e+00  0.0000000000000000e+00  1.4391898407942179e+00  3.5941105086113168e+00  1.3078723523535420e+00  0.0000000000000000e+00  0.0000000000000000e+00  2.5927572539924930e+00  0.0000000000000000e+00  0.0000000000000000e+00  0.0000000000000000e+00  0.0000000000000000e+00  0.0000000000000000e+00  0.0000000000000000e+00  1.3675970024855276e+01  1.3001195852984020e+01  2.3621869279623226e+01  2.7987329274698380e+00  2.0449259823885666e+00  8.9051389041991247e-01  1.0404701943843865e-01  6.0743144864237253e-01  2.9287330549731911e+00  6.3365955897829362e+00  8.2851384394561194e+00  5.6502260330104359e-01  0.0000000000000000e+00  4.7301421765997741e-02  1.6167060782009312e+01  1.0826002436297140e+01  0.0000000000000000e+00  2.1884178281144748e-01  3.0629433576443552e+00  8.6188680657630687e+00  3.1525411026754178e+01  0.0000000000000000e+00  0.0000000000000000e+00  0.0000000000000000e+00  0.0000000000000000e+00  3.1525411026754174e+01  0.0000000000000000e+00  0.0000000000000000e+00  0.0000000000000000e+00  0.0000000000000000e+00  3.1525411026754174e+01  0.0000000000000000e+00  1.7487601852583548e+01  3.0661033086644114e-03  1.4061453368074373e-01  2.0830820980025941e+01  5.9081818811630287e+00  3.1600394637152240e-01  2.3651483764888493e+01  1.3949817631376345e-02  7.1463633561501227e+00  1.2405961669783959e+01  1.2277154970093090e-01  1.7260532451335648e+00  1.1749243795440989e+00  2.3639812533367579e+01  2.7715103140825810e+00  7.2388971850364383e+00  3.3816797621805761e+00  8.9468648119513201e+00  1.3878886355413709e+00  2.8312837835786947e-01  3.5254522900864380e+00  1.3625254973298707e+01  5.0209333456932104e-01  8.6710408142137592e+00  7.0118434572890855e+00  2.6245711893095929e+00  1.1813748388763527e+01  6.4497558927529406e+00  1.7536649339876325e+00  1.5031044027335275e+01  1.4482947621988313e+01  2.2440020254712984e+01  1.3104975926567606e+01  1.2015080108341330e+01  2.4099841942760243e+00  3.1718307693403416e+00  9.4601358547187309e-01  1.0396196254059404e+00  2.3006595940978837e+01  4.2583081288528923e+00  1.8312633108464219e+01  6.0711249216441718e+00  1.2001822775125479e-01  3.8734720515013749e-01  9.5118980685638976e-01  5.1442735187062572e-01  1.5655795333652796e+01  8.3366606121278348e+00  2.5662622822875808e-01  2.3282420386840812e+00  1.8767951136825987e+00  6.5768597509179800e+00  1.8173203101444577e+00  2.4531200617982365e+00  4.5719563125140903e+00  7.7946192291430805e+00  1.0635478334734580e+00  6.1057691189227403e-01  5.8065775421106931e+00  1.6302032478992140e-01  1.6562853114119458e+00  8.6438671331189476e-01  9.4961368770743015e-02  4.8331849639503460e-01  2.5747764739434135e+01  7.0643465183550669e+00  1.3564414257973898e+00  4.3707112765864204e+00  6.5692246787966759e+00  2.4423223597690682e+00  5.9664152240304453e+00  6.8287119522177731e-01  5.7894151293279059e-02  4.3083359058555613e-02  4.7933678300402863e-02  2.2044490838744810e+01  3.1525411026754174e+01  6.7372758602240497e+00  0.0000000000000000e+00  0.0000000000000000e+00  1.1552620850044217e+01  8.4462624772002037e+00  1.7573959369165788e+01  5.6761314711075850e-01  2.7079101997086785e-01  1.1042063386109510e-01  2.5904587276148205e-01  3.4807331192644680e-01  1.4742155142263710e+01  1.4782901742083672e+01  2.3548920164412674e+00  1.3417363858037271e-01  9.2778258310317518e+00  6.6125061273949889e-02  1.1125301592396903e+00  6.0649633406518078e+00  5.1630586236181983e+00  1.6960570204240251e+00  1.4222004124730101e+00  4.3465875784991725e+00  1.1377851230553020e+00  3.3251440612334808e+00  8.0588670406440011e-01  1.4120534689288677e-01  2.3813688759231996e-01  1.0812397708171990e+00  1.3845205721559283e+01  0.0000000000000000e+00  2.3003451377976027e+00  5.3599827131867150e-01  0.0000000000000000e+00  2.2923606426275704e+01  6.6468746359298825e-01  2.5466080388340613e+00  2.4402154394416304e+01  3.1525411026754178e+01  4.6860383133333849e+00  5.2130228223186392e-01  2.2845134038411481e+00  1.3831571026592256e+01  5.3729168314590545e+00  5.3221091607113911e+00  5.5273714907920740e-02  2.5637311867071382e+01  0.0000000000000000e+00  7.3461387243015004e+00  2.5591760117313561e-01  1.4825645469411599e+00  2.7602488123607988e-01  3.5616625966503306e+00  7.5593603600277204e+00  1.2607599739352907e-01  3.3236293722256227e-02  7.2853679600498653e+00  3.1525411026754174e+01  4.1246885877089188e+00  1.7730138060624462e+01  7.4241728012280683e-02  1.8595108391211482e-01  5.2108311902219151e-02  1.7458917081941678e+01  9.3305919942137416e-01  3.1525411026754174e+01  2.1023545861405854e+01  1.6578265593903417e+01  8.8780994391710859e+00  1.6050063001914456e+01  2.6195666372262888e+01  1.1115509701886139e+00  9.3244470547059404e+00  7.4204688084832169e+00  1.3663579210326796e+01  2.5504429879454005e+01  8.5507716302919174e+00  4.4008091780214997e-01  2.2845388670691483e-01  5.7925163856405684e+00  1.5049057115870925e+01  1.8657048683174001e+01  9.0821662551491968e+00  1.4445912417063027e+00  1.9542540991350923e+00  2.4370416556543253e+00  4.3690267189667900e+00  3.4830109263645430e+00  2.2944076472886080e-01  0.0000000000000000e+00  1.4104752978658189e+01  1.6136467695844254e+00  1.3027947005299515e+01  1.9714766521783908e+01  9.5279897455836660e-01  1.9044310446571497e+01  3.1987864686273446e+00  6.7919321535349880e-02  4.4345366575778664e+00  5.2923224958342532e+00  4.2346891258793568e-01  2.8368765717720525e+00  5.1886209460547796e+00  1.8420765176699052e+00  2.5075560752163502e+00  3.4600236512436355e+00  2.2321873540529675e+00  5.5965576292476826e-01  5.8108947059579137e+00  5.0853758909302693e-01  0.0000000000000000e+00  8.9835564967483728e-01  1.1838481122868089e+01  2.0688031094615422e-01  2.5589782638805394e+00  2.1133630869109230e+00  2.3373160376410191e+00  1.7956125284166813e+01  1.6522182286010094e+00  7.8040132455312214e+00  4.0899250010395111e-01  9.5773086487919876e+00  1.5948358765212028e+01  0.0000000000000000e+00  1.6549459181217379e+01  3.1525411026754174e+01  1.5853984157988982e+01  7.9676053454206797e-01  3.1525411026754174e+01  6.8581571323094508e+00  2.6166289030761114e+01  1.8225146902481820e-02  0.0000000000000000e+00  6.2633181939665068e+00  4.6016636041625958e+00  3.6818354286202650e+00  6.6245635041550992e+00  1.0373263956272121e+00  1.0276260142790338e+01  8.3798725826028597e-02  5.6745765591166772e-03  0.0000000000000000e+00  5.1715538579491975e-03  0.0000000000000000e+00  1.0091221526445029e+01  0.0000000000000000e+00  8.0201769816920763e+00  2.3178747584583887e-03  9.5793423019370050e-01  8.4243333184275624e+00  9.9106761854979002e+00  4.3080739455411967e+00  5.7056771306288363e+00  2.1568867872893369e-01  9.8455429204708400e-02  5.2073597584302377e-02  1.5006828929991411e+01  0.0000000000000000e+00  8.2024333366096833e+00  2.5475045806856581e+01  2.4383911755777032e+00  7.8307450055497361e+00  4.5063099765989181e+00  2.9271731736163140e+00  4.4513533937897494e+00  5.6868652948457721e-02  1.8141791785990979e+01  1.0346203747487804e+01  8.7224496970243273e+00  6.3571682687288789e-01  2.2208155155635509e+01  8.6433006740522256e+00  0.0000000000000000e+00  8.1344402384574144e-01  9.6419699677041386e+00  8.5195084009096989e-01  1.9762292618339150e-01  2.1540021600017845e+01  2.0655932381972129e+00  2.2912372031814707e-01  6.6971615778826210e-01  1.7502218605497954e-01  2.4650564742203997e+01  1.8577773945138539e+01  2.5819124295658121e+01  5.0229251003427577e-01  1.3144097396059042e+00  1.2236187797618356e+01  1.9538262298520304e-01  2.5036021129320996e+01  1.0272397182074100e+01  1.3239642698871570e+00  3.0684247423695039e+00  4.0150853397064692e+00  2.5304413977517047e+01  3.8181902031084963e-01  1.0570466824794961e+01  1.8696961766020613e-02  1.3858378571739716e+00  0.0000000000000000e+00  2.2884383425391425e-02  1.1303180363999555e+01  1.3573850330333052e+01  1.0070563980338287e+01  6.7703078874219438e+00  2.0541326783383789e+00  0.0000000000000000e+00  8.0720385922804572e-01  2.5213766362115990e+00  0.0000000000000000e+00  4.1133563992376977e-02  0.0000000000000000e+00  7.0219133864028711e+00  3.1525411026754174e+01  0.0000000000000000e+00  0.0000000000000000e+00  1.6308697189389785e+00  2.2495449679506812e+01  4.4873361044849480e-01  0.0000000000000000e+00  3.0172753811499087e+00  5.6028066624662349e+00  8.2202507476461530e+00  0.0000000000000000e+00  0.0000000000000000e+00  6.2171055823285859e-01  1.1756395014232874e+00  0.0000000000000000e+00  3.8753198035676806e-01  5.4830825654848745e+00  9.5247264655431785e+00  2.0164829205598213e+01  5.4734650511851193e+00  2.2552012638149609e+01  3.1525411026754174e+01  3.1525411026754178e+01  8.0089317189985163e+00  5.3312520891491645e-03  5.7093858062792569e-03  1.5174776404492028e-02  2.0557071376237886e-03  2.1848274588194403e+01  3.1525411026754174e+01  2.1605072443834970e+01  2.1410938775452912e+01  2.2829878662747782e-03  7.5924191031899593e+00  1.6043298786015419e+00  1.2342485988745020e+00  1.2879089479625474e+00  1.3344393289879923e+01  1.2250350452203030e+01  7.1914083121106032e-01  0.0000000000000000e+00  1.5892228964051993e+01  6.0687635634818475e+00  0.0000000000000000e+00  0.0000000000000000e+00  7.4727424867027015e+00  2.6283044214697014e+01  8.4036965224962721e+00  1.5015249484471018e+00  3.3242857581872904e+00  3.2752701307963763e+00  1.5915700075609680e+00  3.0115744364950769e+00  7.6311553935372975e+00  2.1685671281132746e+00  9.5641438554931291e-02  4.2626138913521627e-02  7.8826727870341406e-01  5.3297834923243514e-01  1.2885232843307906e-01  1.0720116766263990e-01  5.0790104656409634e+00  5.5612982106097970e+00  7.3403682528519614e+00  1.5359625335187290e+00  1.1323171445896564e+01  2.8795415849021477e-01  4.7182133826906986e-01  0.0000000000000000e+00  1.7965653895397762e+00  4.1401166075932476e+00  1.5870033746976238e+00  1.0585095250494803e+00  3.4009457657806066e+00  1.9776674791010804e+00  2.2210305291132162e+01  9.4411593023644114e-01  1.9939726440053551e+00  2.5575627513636756e-01  2.9803924679508578e+00  1.5524429673223130e+01  4.1310272446584841e+00  7.9588647395143370e+00  1.0347857115954461e+01  6.8977610547896777e+00  3.0124728053796102e-01  4.4679904900683153e-02  0.0000000000000000e+00  2.3255578837574604e+00  1.0813681717466679e+01  4.0205178370961397e-01  0.0000000000000000e+00  0.0000000000000000e+00  2.0865140166290299e+01  2.7719768377059488e+01  3.8293518554457791e+00  2.2639536840203189e+00  2.8206660833925814e+00  4.7475902441545790e+00  6.5516773715372612e-01  2.8957594974819028e+00  0.0000000000000000e+00  0.0000000000000000e+00  0.0000000000000000e+00  0.0000000000000000e+00  0.0000000000000000e+00  0.0000000000000000e+00  0.0000000000000000e+00  0.0000000000000000e+00  0.0000000000000000e+00  0.0000000000000000e+00  0.0000000000000000e+00  1.5321411946028585e+00  0.0000000000000000e+00  0.0000000000000000e+00  0.0000000000000000e+00  0.0000000000000000e+00  0.0000000000000000e+00  0.0000000000000000e+00  0.0000000000000000e+00  0.0000000000000000e+00  1.5295899625922544e+01  1.2405879036452500e+01  1.5533464340496279e+01  1.7459416126846769e+01  0.0000000000000000e+00  0.0000000000000000e+00  </DataArray> 
</PointData> 
</Piece>
</UnstructuredGrid>
</VTKFile>