<?xml version="1.0"?>
<VTKFile type="UnstructuredGrid"  version="0.1"  >
<UnstructuredGrid>
<Piece  NumberOfPoints="618" NumberOfCells="1080">
<Points>
<DataArray  type="Float64"  NumberOfComponents="3"  format="ascii">-4.25 4 0  -4.25 -4 0  4.25 -4 0  4.25 4 0  -1.25 1 0  -0.25 0 0  -1.25 -1 0  -3.25 -1 0  -3.25 1 0  1.25 1 0  3.25 1 0  3.25 -1 0  1.25 -1 0  0.25 0 0  0 -4 0  0 4 0  -4.25 0 0  4.25 0 0  -3.25 0 0  -4.25 2 0  -4.25 -2 0  3.25 0 0  4.25 -2 0  4.25 2 0  -4.25 1 0  -4.25 -1 0  4.25 -1 0  4.25 1 0  2.125 -4 0  -2.125 -4 0  -2.125 4 0  2.125 4 0  0 -2.239583333333333 0  -1.0625 2.682291666666667 0  1.0625 2.682291666666667 0  2.732954545454545 -2.517045454545455 0  -2.652986895301826 2.487057585738185 0  -2.25 -2.3359375 0  2.732954545454545 2.517045454545455 0  -2.220446049250313e-16 1.712275864293086 0  1.0625 -4 0  -1.0625 -4 0  1.367473250008284 -2.368504187683424 0  -3.1875 -4 0  -4.25 -3 0  -0.1296853207810323 -1.120314679218968 0  -1.104177184613194 -2.774001294888289 0  -4.25 3 0  -3.1875 4 0  3.1875 -4 0  1.0625 4 0  -1.0625 4 0  0 2.912786149538867 0  3.1875 4 0  2.25 1 0  2.25 -1 0  4.25 3 0  4.25 -3 0  -3.168025852734163 -2.914855593530048 0  1.835186788703338 1.967454154770984 0  0.6113906733843583 -3.071422739535278 0  -1.774938872060195 1.910101868609392 0  -2.25 -1 0  -2.25 1 0  -3.132312635730683 -1.954144290196067 0  1.981433392649784 -3.075046883716055 0  -0.8645017377304687 -1.861306024041929 0  0.6074134196061652 -1.602057299882968 0  -0.2739244448957433 -3.08151570898844 0  0.75 0.5 0  -0.75 0.5 0  -0.8937995122115957 1.811894385777969 0  0.884082324512012 1.810811355569967 0  -1.59375 3.341145833333333 0  1.59375 3.341145833333333 0  -3.529712121366897 2.5 0  -1.903284444846377 -3.146619224730244 0  -1.75 -1.66796875 0  2.111489472208695 -1.879492626314222 0  -3.08111685970403 3.186693221250952 0  3.364382300660234 1.885617699339766 0  3.573778515491998 -2.5 0  2.903954140703144 -1.728692745946152 0  2.390142767929403 3.242602068217662 0  -2.75 1.662634663474167 0  3.372533770890645 3.13214525657131 0  3.16728417474861 -3.195057010178064 0  2.589941262541426 1.742604416426647 0  -3.525246989223928 1.724753010776072 0  0.53125 3.456393074769434 0  -0.53125 3.456393074769434 0  -2.606862098331335 -3.419315967153206 0  0 0.75 0  -2.327381224256022 3.167117555031311 0  -3.71875 -4 0  -1.790317893771425 2.639041475970867 0  -3.71875 4 0  3.735226909179794 2.5 0  -0.434689127717023 2.352426619417106 0  -3.745009551939732 -2.5 0  -0.75 -0.5 0  0.75 -0.5 0  4.25 0.5 0  3.25 0.5 0  4.25 -1.5 0  4.25 -0.5 0  3.25 -0.5 0  -3.709049205194704 -1.540950794805296 0  -4.25 -0.5 0  -3.25 -0.5 0  -4.25 0.5 0  -3.25 0.5 0  0.3806308022205874 2.312531006915977 0  1.761206624332812 2.662514594411487 0  -0.5060765330222172 1.231137932146543 0  0.5605474365462708 1.181642309638812 0  0.6855656887778322 -2.284642742762343 0  1.289320980836618 -1.685918744804048 0  3.587635667913422 -1.811465512252732 0  1.295778297634739 -3.312807108751953 0  3.71875 -4 0  -2.484718261547373 -1.66796875 0  2.54129472188067 -3.461766406157935 0  -1.584553768394408 -2.312930421172607 0  4.25 1.5 0  3.71875 4 0  4.25 3.5 0  -0.5940223816001772 -2.420151638210574 0  -0.8562891081864143 -3.379282219009797 0  -3.453125 -3.452486112007326 0  2.127009732348907 -2.486032047514898 0  -1.59375 -4 0  -2.65625 4 0  -3.662931834238117 3.076901539353532 0  0 -0.5397694439488789 0  1.75 -1 0  -3.103880145098495 2.114816279251727 0  -2.581814706610864 -2.827102548810904 0  4.25 -3.5 0  1.413547583931744 1.561783389431753 0  0.03834544098927617 -1.667993000915835 0  -0.7130888383380199 -1.276615003457198 0  3.73611063751562 -3.25 0  -3.75 -0.75 0  3.738677428252632 -1.272645143494735 0  3.75 -0.25 0  3.75 0.75 0  -3.75 0.25 0  3.677509907171241 1.394980185657518 0  0.1729724216486316 -3.448324400630145 0  0.4600609565193352 -1.022739784851008 0  2.65625 4 0  2.914663145853574 3.483761529335237 0  -4.25 3.5 0  -0.5517444534416718 2.892011263841753 0  0.5540646533827686 2.90270658464378 0  1.59375 -4 0  -1.37424348188583 -3.238005613405709 0  1.069349366464763 3.4619158840928 0  -1.069349366464763 3.4619158840928 0  -2.65625 -4 0  -0.53125 4 0  0 3.444176594402671 0  0.53125 4 0  2.65625 -4 0  1.59375 4 0  -1.59375 4 0  -0.53125 -4 0  0.53125 -4 0  1.400538445557165 2.272658812911446 0  2.212546125072832 2.359086493404626 0  2.110641017341508 1.512903708520227 0  -1.298251865999914 2.185050803358182 0  -1.370486518271877 1.53694545102918 0  -2.324422829193396 2.0304747341473 0  -3.451296905381042 3.55188349935487 0  -2.252980012983497 1.517709623472462 0  0.8314572325841179 -3.538377529121299 0  0.1651118913394702 -2.758829960694034 0  1.084171046623539 -2.82186797480777 0  -2.775042824686969 -2.338900091740216 0  -1.75 1 0  -3.75 1.224753010776072 0  3.703810778903693 -0.7608738526024619 0  3.200031682171212 -2.148071444649835 0  -2.75 -1 0  -3 -1.453494282248404 0  1.859375 -3.567610582724346 0  3.231983999099127 2.384647152984348 0  1.75 1 0  -4.25 -1.5 0  -4.25 -3.5 0  -4.25 -2.5 0  -2.75 1 0  2.75 -1 0  4.25 -2.5 0  -1.75 -1 0  -4.25 1.5 0  -4.25 2.5 0  2.75 1 0  4.25 2.5 0  3.6875 0.25 0  -3.8125 -0.25 0  -3.664134562492216 -2.996182596888396 0  3.039340426132883 1.477403214811896 0  2.896872754762841 2.986670048367758 0  -3.258366227721622 -2.429444505580982 0  2.446349413314191 -1.481576162462785 0  -3.681188252694018 0.7373765053880361 0  2.476579304073827 -2.956835371296098 0  -0.02432413470993235 1.231137932146543 0  -3.768701313157564 -2.01891287359335 0  -0.3003833714327223 -3.569391618787892 0  3.738758154515608 3.489032101672833 0  1.765125328401306 -1.507819279873149 0  -1.154609827091184 -1.474228359417639 0  -0.3782899039068293 -1.927124175896865 0  -1.0987830704712 -2.2876005584161 0  1.571527962491337 -2.811213963622433 0  3.453125 -3.618650513056585 0  -2.695779283221825 3.503022462680263 0  -0.9506183469926481 1.349169849337732 0  2.886282976328413 2.08830543919736 0  -1.859375 -3.613519447919825 0  2.196091517674023 2.822001312269779 0  -0.4331066709684581 1.885839750017772 0  -1.346579666326327 -1.896006401923806 0  0.3615381915131272 -1.976755936558648 0  3.821488887375865 1.832107028539069 0  -1.582441118860814 -2.791510074823685 0  1.783747011907793 -2.191347248790469 0  2.446726602920125 -2.174382785541248 0  1.00313605033398 1.376565418154098 0  0.4310990218857933 1.859718924919822 0  0.8431524738950877 2.273194731823086 0  3.79439950055633 2.954070419523107 0  -0.7019885456454824 -2.962688853250264 0  -1.809937825166108 1.444957047974289 0  -2.13958155756883 -2.768196505281545 0  0.8612976984758075 -1.229081800223121 0  -0.8630334387412009 2.251005472564539 0  3.321417426962666 -1.446259249210685 0  -0.5073366151708427 -0.8776512943898103 0  -3.793259760009133 2.110845711006983 0  -3.090402298858048 2.557693208058808 0  -2.247717610706491 2.710997145391222 0  -2.027243184081608 3.535216752426951 0  0.9153369981443099 -1.912568471518071 0  -0.3532759984188575 -1.502839791357869 0  -3.034134083998229 -3.330264448685832 0  1.859375 3.670572916666667 0  -1.255299096542601 3.070440031839168 0  1.255299096542601 3.070440031839168 0  2.921875 -3.661875333337763 0  3.850809893598207 -2.832606356593649 0  3.846137648733236 -2.161074698689199 0  3.154627290018481 -2.570713902241912 0  -2.117359130773687 -1.914105354596305 0  -2.117359130773687 -1.421832145403695 0  -0.2166182667981147 -2.594339128300363 0  -3 1.331317331737083 0  3.326005959697935 3.596580658075049 0  -1.197601683043599 -3.610505460419974 0  -3.889856060683448 2.720667060374939 0  -2.815848022447855 2.868208719765569 0  2.488151170525763 1.340091272643286 0  -0.01984015345470717 2.479395784383366 0  -1.983953407139114 2.270324157287136 0  3.443486976475133 -2.890195582518409 0  2.882927457718616 -2.899093911813329 0  2.535755967375144 3.616888299617402 0  1.977826951734316 3.17776613581278 0  -2.31114086362501 -3.138309084472732 0  -3.845245875189892 3.44277358595823 0  -3.844124779023461 -3.600984140212427 0  -3.63273202255171 -1.140464045103419 0  0.4256685825438592 0.7770057476315775 0  0.5 0.25 0  -0.4335625501304853 0.800687650391456 0  -1 0.75 0  -0.5 0.25 0  -0.125 0.375 0  0.7090071616509334 -2.683739213204448 0  2.241826269333066 1.953254035682167 0  -2.716207311637434 2.053646240820244 0  -3.135046077565108 1.725860417408368 0  -3.387623494611964 1.362376505388036 0  -3.323698444114522 2.875705721499792 0  -2.260619496018966 -3.622268554717983 0  0.2892748300192267 1.456467626467612 0  0.2058019989618376 -1.317000847560413 0  -0.8031267956087405 3.183702750144165 0  -2.921875 -3.708398957437165 0  0.05605170236062412 2.097542063723369 0  -3.925108109555673 1.733251805097824 0  -1.52946203820045 -1.333984375 0  3.222157718558086 2.773457380998749 0  0.8030592928274842 3.190279693453577 0  0.796875 3.728196537384717 0  0.265625 3.728196537384717 0  0.2718753184275909 3.178481371970769 0  -0.2593746815724092 3.722088297201336 0  -0.2718753184275909 3.178481371970769 0  -0.796875 3.728196537384717 0  -3.067074060966304 3.627403604812928 0  -2.370495949438301 3.705693279192516 0  -1.912578893425812 3.051839540671347 0  2.821284620673293 -2.10126004722262 0  -1 -0.75 0  1.39351036923774 3.670572916666667 0  -1.328125 3.734295535563151 0  -0.5 -0.25 0  0.3812225659848426 -0.6372342251415175 0  3.869830251596885 -3.62829620482169 0  1.488385856740025 -3.637488873017461 0  2.80237578941782 -1.369543994449923 0  1 -0.75 0  3.963145395057808 -1.75 0  -2.745637781387773 -1.953344094870445 0  -1.419661583232925 2.547121360921379 0  2.542807541797504 2.207256908599424 0  1.660446255818958 -3.256910570780324 0  0.9521578486482744 -3.19615981162048 0  -3.955499806374016 -3.238655190931554 0  1.428767536584573 -1.333838401207307 0  3.984375 4 0  2.543564155860945 2.91675373813093 0  -2.654045025260287 -1.348554065372634 0  -1.851535534560853 -2.553403479553177 0  -2.576968950851106 1.331317331737083 0  3.930113675501616 2.185653591086291 0  3.539352899584
[...]
<PointData  Scalars="f_817"> 
<DataArray  type="Float64"  Name="f_817"  format="ascii">0.0000000000000000e+00  0.0000000000000000e+00  0.0000000000000000e+00  0.0000000000000000e+00  0.0000000000000000e+00  0.0000000000000000e+00  0.0000000000000000e+00  0.0000000000000000e+00  0.0000000000000000e+00  3.7627103483545298e+01  3.7627103483545298e+01  3.7627103483545298e+01  3.7627103483545305e+01  3.7627103483545298e+01  0.0000000000000000e+00  0.0000000000000000e+00  0.0000000000000000e+00  0.0000000000000000e+00  0.0000000000000000e+00  0.0000000000000000e+00  0.0000000000000000e+00  3.7627103483545298e+01  0.0000000000000000e+00  0.0000000000000000e+00  0.0000000000000000e+00  0.0000000000000000e+00  0.0000000000000000e+00  0.0000000000000000e+00  0.0000000000000000e+00  0.0000000000000000e+00  0.0000000000000000e+00  0.0000000000000000e+00  9.8980741447363894e+00  3.5125413054671206e+00  1.1135963369760219e+01  1.2046096080206318e+01  7.7953644791981114e-01  1.2125777895876027e+00  1.2050969915149933e+01  1.2790766976495121e+01  0.0000000000000000e+00  0.0000000000000000e+00  1.5161968996314673e+01  0.0000000000000000e+00  0.0000000000000000e+00  1.3574811799070456e+01  3.2212099816504614e+00  0.0000000000000000e+00  0.0000000000000000e+00  0.0000000000000000e+00  0.0000000000000000e+00  0.0000000000000000e+00  6.0805757656733928e+00  0.0000000000000000e+00  3.7627103483545298e+01  3.7627103483545298e+01  0.0000000000000000e+00  0.0000000000000000e+00  3.7367823070575251e-01  2.1070520592782991e+01  6.7105504968821350e+00  1.8937912940343686e+00  0.0000000000000000e+00  0.0000000000000000e+00  3.9138348010964646e-01  8.0880235450610485e+00  5.4787152117001039e+00  1.9749394230617234e+01  4.4278097512157402e+00  3.7627103483545298e+01  0.0000000000000000e+00  5.3121937256550078e+00  1.9639085162005571e+01  1.2364455429549277e+00  5.6536355986362272e+00  2.5077646615130594e-01  1.1966914583633259e+00  1.6479877199720316e+00  2.2254064619076320e+01  3.4081235597707682e-01  1.4239252894852054e+01  6.5515842252117231e+00  2.1459492790331531e+01  6.1425229238156396e+00  4.8042117157826297e-01  4.2037031385903614e+00  4.6591077871460724e+00  2.3114055091309048e+01  1.8919720864008535e-01  3.7628114745324481e+00  2.2645314422448433e+00  4.2767080761426268e-01  1.7111414846838258e+01  7.7549014183559561e-01  0.0000000000000000e+00  1.8394563121741065e+00  0.0000000000000000e+00  5.1445451764665080e+00  6.9091243218333220e+00  1.6913845764036439e-01  0.0000000000000000e+00  3.7627103483545298e+01  0.0000000000000000e+00  3.7627103483545298e+01  0.0000000000000000e+00  0.0000000000000000e+00  3.7627103483545298e+01  1.1105711985697020e-01  0.0000000000000000e+00  0.0000000000000000e+00  0.0000000000000000e+00  0.0000000000000000e+00  1.1633916421405738e+01  1.2337538618345073e+01  8.2752138833796955e+00  2.4020972229237778e+01  1.3493949415254383e+01  2.3944432964573860e+01  1.1717725836210011e+01  5.7428160609238024e+00  0.0000000000000000e+00  6.6499332777386189e-01  4.0986420863356861e+00  2.4480232047812089e+00  0.0000000000000000e+00  0.0000000000000000e+00  0.0000000000000000e+00  5.9078252100392303e+00  2.0890608501977059e+00  1.4678471053608982e-01  1.4166038986952632e+01  0.0000000000000000e+00  0.0000000000000000e+00  1.6194914188945153e-01  1.7761657805764610e+01  3.7627103483545298e+01  4.3493955486188818e-01  7.6436825990389889e-01  0.0000000000000000e+00  2.6513185040569823e+01  1.3349100871412878e+01  6.0873527962477176e+00  2.2034420042958969e+00  1.4502029126056686e-02  1.4490276592580928e+01  1.8489864861888780e+01  1.7531757363236448e+01  4.2641662049505806e-03  1.4452302186368382e+01  3.2968549638066387e+00  2.4243555856044232e+01  0.0000000000000000e+00  3.3673639355559954e+00  0.0000000000000000e+00  4.4535930106212422e+00  7.8387380094436852e+00  0.0000000000000000e+00  1.7177427132060024e+00  4.2897448006006034e+00  1.5610089366800335e+00  0.0000000000000000e+00  0.0000000000000000e+00  3.0945812386361995e+00  0.0000000000000000e+00  0.0000000000000000e+00  0.0000000000000000e+00  0.0000000000000000e+00  0.0000000000000000e+00  0.0000000000000000e+00  1.6322931965149849e+01  1.5517556340658345e+01  2.8193843978905143e+01  3.3404231714962567e+00  2.4407181080121600e+00  1.0628714175979590e+00  1.2418515223297510e-01  7.2499882579896024e-01  3.4955846140002582e+00  7.5630334458699551e+00  9.8887136212863336e+00  6.7438181684318110e-01  0.0000000000000000e+00  5.6456535656190833e-02  1.9296169320462727e+01  1.2921357746548200e+01  0.0000000000000000e+00  2.6119825690398579e-01  3.6557711042851970e+00  1.0287036078491408e+01  3.7627103483545298e+01  0.0000000000000000e+00  0.0000000000000000e+00  0.0000000000000000e+00  0.0000000000000000e+00  3.7627103483545298e+01  0.0000000000000000e+00  0.0000000000000000e+00  0.0000000000000000e+00  0.0000000000000000e+00  3.7627103483545298e+01  0.0000000000000000e+00  2.0872298985341654e+01  3.6595426587284906e-03  1.6783024987701667e-01  2.4862592782611603e+01  7.0517009549365159e+00  3.7716600050794619e-01  2.8229190300028197e+01  1.6649782334223363e-02  8.5295304573404689e+00  1.4807115541355051e+01  1.4653378512691756e-01  2.0601280667723203e+00  1.4023290981655370e+00  2.8215260120470987e+01  3.3079316651953397e+00  8.6399740595596182e+00  4.0361984258284300e+00  1.0678516065877377e+01  1.6565122424203462e+00  3.3792741933036013e-01  4.2077978946192953e+00  1.6262401097162961e+01  5.9927268964725400e-01  1.0349306778255132e+01  8.3689744490224527e+00  3.1325527098211268e+00  1.4100280334975830e+01  7.6980957429631847e+00  2.0930839534691108e+00  1.7940278355206619e+01  1.7286098774631203e+01  2.6783249981431613e+01  1.5641422880096815e+01  1.4340579484149329e+01  2.8764327480068679e+00  3.7857334988900866e+00  1.1291129891115899e+00  1.2408363270974132e+00  2.7459485477942465e+01  5.0824967989534500e+00  2.1857013710102454e+01  7.2461813580914320e+00  1.4324756215472340e-01  4.6231763195338960e-01  1.1352910597963355e+00  6.1399393610364972e-01  1.8685949269198495e+01  9.9502078273783798e+00  3.0629582078916279e-01  2.7788695300422894e+00  2.2400457808469718e+00  7.8498003478698468e+00  2.1690597250111270e+00  2.9279174931140242e+00  5.4568510826781083e+00  9.3032552089772231e+00  1.2693958012425144e+00  7.2875308838755259e-01  6.9304312599385716e+00  1.9457264571700286e-01  1.9768566620078067e+00  1.0316873675012939e+00  1.1334098853282223e-01  5.7686401182633096e-01  3.0731203076098815e+01  8.4316393928754003e+00  1.6189784759517225e+00  5.2166553946354046e+00  7.8406875198540975e+00  2.9150299132727575e+00  7.1212052673911774e+00  8.1503981365179878e-01  6.9099470898429799e-02  5.1422073715050254e-02  5.7211164423061490e-02  2.6311166484953482e+01  3.7627103483545298e+01  8.0412647363964478e+00  0.0000000000000000e+00  0.0000000000000000e+00  1.3788611982310835e+01  1.0081022956658307e+01  2.0975370859972056e+01  6.7747375622896933e-01  3.2320218512651955e-01  1.3179236944711342e-01  3.0918378361854298e-01  4.1544234004124309e-01  1.7595475492379272e+01  1.7644108530874060e+01  2.8106775680105431e+00  1.6014272991850939e-01  1.1073534056392731e+01  7.8923460230198209e-02  1.3278585771570501e+00  7.2388272130360285e+00  6.1623602927055927e+00  2.0243261211512551e+00  1.6974650084355278e+00  5.1878625936925591e+00  1.3580015984853600e+00  3.9687203311496373e+00  9.6186477581880003e-01  1.6853541403344538e-01  2.8422789809405924e-01  1.2905119845237525e+00  1.6524922957990114e+01  0.0000000000000000e+00  2.7455732289842345e+00  6.3973987221905926e-01  0.0000000000000000e+00  2.7360433476522608e+01  7.9333665009485710e-01  3.0394999173180723e+00  2.9125152019142028e+01  3.7627103483545298e+01  5.5930134707527506e+00  6.2219949814770870e-01  2.7266772884555626e+00  1.6508649289803664e+01  6.4128362181930632e+00  6.3521948047200461e+00  6.5971853277195736e-02  3.0599372228440028e+01  0.0000000000000000e+00  8.7679720257792049e+00  3.0545004010987159e-01  1.7695125237684810e+00  3.2944905179790152e-01  4.2510166476149092e+00  9.0224623651943752e+00  1.5047780334066369e-01  3.9669124765273567e-02  8.6954391781240314e+00  3.7627103483545298e+01  4.9230154111364497e+00  2.1161777685261463e+01  8.8611094724335024e-02  2.2194161628220155e-01  6.2193791625229325e-02  2.0838062323607815e+01  1.1136513025351884e+00  3.7627103483545298e+01  2.5092619253936018e+01  1.9786962160465368e+01  1.0596441266107426e+01  1.9156526808736615e+01  3.1265795347539569e+01  1.3266898676444747e+00  1.1129178742713536e+01  8.8566885778670610e+00  1.6308142928454558e+01  3.0440771146445101e+01  1.0205759687767770e+01  5.2525786963482435e-01  2.7267076800502743e-01  6.9136485893129338e+00  1.7961777847974972e+01  2.2268090363788325e+01  1.0840004885178066e+01  1.7241895465526842e+00  2.3324968279999476e+00  2.9087271373938726e+00  5.2146447936055225e+00  4.1571420734028415e+00  2.7384865467638203e-01  0.0000000000000000e+00  1.6834705168075896e+01  1.9259654991814104e+00  1.5549485135357484e+01  2.3530527784064663e+01  1.1372116793115981e+00  2.2730306016875662e+01  3.8179064302971524e+00  8.1064996671224077e-02  5.2928340751735847e+00  6.3166429788989467e+00  5.0543063760495544e-01  3.3859494566311596e+00  6.1928701614202195e+00  2.1986074565737579e+00  2.9928895091291929e+00  4.1297056482585317e+00  2.6642236161277353e+00  6.6797623316827204e-01  6.9355840038852525e+00  6.0696421924006416e-01  0.0000000000000000e+00  1.0722309367086760e+00  1.4129800049874815e+01  2.4692166145186156e-01  3.0542643794703213e+00  2.5224011037323919e+00  2.7896997868618607e+00  2.1431504371424907e+01  1.9720024018786237e+00  9.3144674220856523e+00  4.8815233883374781e-01  1.1430981290493657e+01  1.9035137881059509e+01  0.0000000000000000e+00  1.9752580313065909e+01  3.7627103483545298e+01  1.8922497220825552e+01  9.5097225090504900e-01  3.7627103483545298e+01  8.1855423837241847e+00  3.1230732068972948e+01  2.1752594690058930e-02  0.0000000000000000e+00  7.4755733282826053e+00  5.4923081727101941e+00  4.3944487373854786e+00  7.9067370856044734e+00  1.2380992463937686e+00  1.2265213718814273e+01  1.0001783405042118e-01  6.7728816995908684e-03  0.0000000000000000e+00  6.1724997659393663e-03  0.0000000000000000e+00  1.2044361176724712e+01  0.0000000000000000e+00  9.5724693007292512e+00  2.7664956794503349e-03  1.1433408553924811e+00  1.0054849444574829e+01  1.1828871576239424e+01  5.1418947091943341e+00  6.8100017365569929e+00  2.5743487461195319e-01  1.1751131872820031e-01  6.2152358407070576e-02  1.7911376464828454e+01  0.0000000000000000e+00  9.7900010791792997e+00  3.0405699833990109e+01  2.9103378547217749e+00  9.3463730711400075e+00  5.3784990043277388e+00  3.4937228201226973e+00  5.3129056635555072e+00  6.7875489002997905e-02  2.1653106325215038e+01  1.2348694795388674e+01  1.0410665767416129e+01  7.5875879336441476e-01  2.6506507766403669e+01  1.0316197578707495e+01  0.0000000000000000e+00  9.7088480265459476e-01  1.1508157703388814e+01  1.0168445510763191e+00  2.3587252479953166e-01  2.5709058038730980e+01  2.4653854778482871e+00  2.7347024683133686e-01  7.9933863994082865e-01  2.0889744787207223e-01  2.9421641789082180e+01  2.2173472128068578e+01  3.0816374159333897e+01  5.9951041520219961e-01  1.5688116246909178e+00  1.4604482210060619e+01  2.3319861453072616e-01  2.9881702638221824e+01  1.2260603088281991e+01  1.5802154188975746e+00  3.6623134021829546e+00  4.7921986312625560e+00  3.0202042489294538e+01  4.5571947585488470e-01  1.2616363629593987e+01  2.2315728559443967e-02  1.6540645392076434e+00  0.0000000000000000e+00  2.7313618927080077e-02  1.3490892692515599e+01  1.6201047168462026e+01  1.2019705395887634e+01  8.0806900591810287e+00  2.4517067451135492e+00  0.0000000000000000e+00  9.6343686423992536e-01  3.0093850174138446e+00  0.0000000000000000e+00  4.9094898958643461e-02  0.0000000000000000e+00  8.3809933966743948e+00  3.7627103483545298e+01  0.0000000000000000e+00  0.0000000000000000e+00  1.9465219226045860e+00  2.6849407681991998e+01  5.3558527698691305e-01  0.0000000000000000e+00  3.6012641645982768e+00  6.6872208552016339e+00  9.8112670213841096e+00  0.0000000000000000e+00  0.0000000000000000e+00  7.4204163401986278e-01  1.4031826307310200e+00  0.0000000000000000e+00  4.6253817010323933e-01  6.5443243523529180e+00  1.1368221910487021e+01  2.4067699374423675e+01  6.5328453836725622e+00  2.6916918310049525e+01  3.7627103483545298e+01  3.7627103483545298e+01  9.5590475355788715e+00  6.3631073322102877e-03  6.8144282203978241e-03  1.8111829902135650e-02  2.4535859384541983e-03  2.6076972895586870e+01  3.7627103483545298e+01  2.5786699368448190e+01  2.5554991441669614e+01  2.7248564855537668e-03  9.0619195747751107e+00  1.9148453389760338e+00  1.4731354244631152e+00  1.5371816475682023e+00  1.5927179087921203e+01  1.4621386023597166e+01  8.5832937918739471e-01  0.0000000000000000e+00  1.8968144247416891e+01  7.2433629628654312e+00  0.0000000000000000e+00  0.0000000000000000e+00  8.9190797421935439e+00  3.1370085030444820e+01  1.0030218430076189e+01  1.7921426804046054e+00  3.9676959049332154e+00  3.9091933819182532e+00  1.8996158154759932e+00  3.5944598113005752e+00  9.1081532116412927e+00  2.5882897980706820e+00  1.1415268472685339e-01  5.0876359348396738e-02  9.4083513909762284e-01  6.3613544908387443e-01  1.5379148877496521e-01  1.2794978075863475e-01  6.0620447493134089e+00  6.6376785094374977e+00  8.7610846888878289e+00  1.8332456045223529e+00  1.3514753016070085e+01  3.4368722142380481e-01  5.6314159728888946e-01  0.0000000000000000e+00  2.1442877229990871e+00  4.9414294993854888e+00  1.8941653181874862e+00  1.2633823363493792e+00  4.0591933333510450e+00  2.3604418298948371e+00  2.6509074057157743e+01  1.1268480457660748e+00  2.3799028331676815e+00  3.0525748967889005e-01  3.5572426230381216e+00  1.8529157997072762e+01  4.9305809049149651e+00  9.4992901729687222e+00  1.2350668170655323e+01  8.2328115815231637e+00  3.5955320580337247e-01  5.3327628429847604e-02  0.0000000000000000e+00  2.7756658612589056e+00  1.2906652372460229e+01  4.7986825797599048e-01  0.0000000000000000e+00  0.0000000000000000e+00  2.4903554392023903e+01  3.3084884837135519e+01  4.5705167306933490e+00  2.7021382680242518e+00  3.3666014543717893e+00  5.6664786785070760e+00  7.8197439595767260e-01  3.4562290776396898e+00  0.0000000000000000e+00  0.0000000000000000e+00  0.0000000000000000e+00  0.0000000000000000e+00  0.0000000000000000e+00  0.0000000000000000e+00  0.0000000000000000e+00  0.0000000000000000e+00  0.0000000000000000e+00  0.0000000000000000e+00  0.0000000000000000e+00  1.8286846516227662e+00  0.0000000000000000e+00  0.0000000000000000e+00  0.0000000000000000e+00  0.0000000000000000e+00  0.0000000000000000e+00  0.0000000000000000e+00  0.0000000000000000e+00  0.0000000000000000e+00  1.8256396327714008e+01  1.4807016914475556e+01  1.8539941309624581e+01  2.0838657957849374e+01  0.0000000000000000e+00  0.0000000000000000e+00  </DataArray> 
</PointData> 
</Piece>
</UnstructuredGrid>
</VTKFile>