<?xml version="1.0"?>
<VTKFile type="UnstructuredGrid"  version="0.1"  >
<UnstructuredGrid>
<Piece  NumberOfPoints="618" NumberOfCells="1080">
<Points>
<DataArray  type="Float64"  NumberOfComponents="3"  format="ascii">-4.25 4 0  -4.25 -4 0  4.25 -4 0  4.25 4 0  -1.25 1 0  -0.25 0 0  -1.25 -1 0  -3.25 -1 0  -3.25 1 0  1.25 1 0  3.25 1 0  3.25 -1 0  1.25 -1 0  0.25 0 0  0 -4 0  0 4 0  -4.25 0 0  4.25 0 0  -3.25 0 0  -4.25 2 0  -4.25 -2 0  3.25 0 0  4.25 -2 0  4.25 2 0  -4.25 1 0  -4.25 -1 0  4.25 -1 0  4.25 1 0  2.125 -4 0  -2.125 -4 0  -2.125 4 0  2.125 4 0  0 -2.239583333333333 0  -1.0625 2.682291666666667 0  1.0625 2.682291666666667 0  2.732954545454545 -2.517045454545455 0  -2.652986895301826 2.487057585738185 0  -2.25 -2.3359375 0  2.732954545454545 2.517045454545455 0  -2.220446049250313e-16 1.712275864293086 0  1.0625 -4 0  -1.0625 -4 0  1.367473250008284 -2.368504187683424 0  -3.1875 -4 0  -4.25 -3 0  -0.1296853207810323 -1.120314679218968 0  -1.104177184613194 -2.774001294888289 0  -4.25 3 0  -3.1875 4 0  3.1875 -4 0  1.0625 4 0  -1.0625 4 0  0 2.912786149538867 0  3.1875 4 0  2.25 1 0  2.25 -1 0  4.25 3 0  4.25 -3 0  -3.168025852734163 -2.914855593530048 0  1.835186788703338 1.967454154770984 0  0.6113906733843583 -3.071422739535278 0  -1.774938872060195 1.910101868609392 0  -2.25 -1 0  -2.25 1 0  -3.132312635730683 -1.954144290196067 0  1.981433392649784 -3.075046883716055 0  -0.8645017377304687 -1.861306024041929 0  0.6074134196061652 -1.602057299882968 0  -0.2739244448957433 -3.08151570898844 0  0.75 0.5 0  -0.75 0.5 0  -0.8937995122115957 1.811894385777969 0  0.884082324512012 1.810811355569967 0  -1.59375 3.341145833333333 0  1.59375 3.341145833333333 0  -3.529712121366897 2.5 0  -1.903284444846377 -3.146619224730244 0  -1.75 -1.66796875 0  2.111489472208695 -1.879492626314222 0  -3.08111685970403 3.186693221250952 0  3.364382300660234 1.885617699339766 0  3.573778515491998 -2.5 0  2.903954140703144 -1.728692745946152 0  2.390142767929403 3.242602068217662 0  -2.75 1.662634663474167 0  3.372533770890645 3.13214525657131 0  3.16728417474861 -3.195057010178064 0  2.589941262541426 1.742604416426647 0  -3.525246989223928 1.724753010776072 0  0.53125 3.456393074769434 0  -0.53125 3.456393074769434 0  -2.606862098331335 -3.419315967153206 0  0 0.75 0  -2.327381224256022 3.167117555031311 0  -3.71875 -4 0  -1.790317893771425 2.639041475970867 0  -3.71875 4 0  3.735226909179794 2.5 0  -0.434689127717023 2.352426619417106 0  -3.745009551939732 -2.5 0  -0.75 -0.5 0  0.75 -0.5 0  4.25 0.5 0  3.25 0.5 0  4.25 -1.5 0  4.25 -0.5 0  3.25 -0.5 0  -3.709049205194704 -1.540950794805296 0  -4.25 -0.5 0  -3.25 -0.5 0  -4.25 0.5 0  -3.25 0.5 0  0.3806308022205874 2.312531006915977 0  1.761206624332812 2.662514594411487 0  -0.5060765330222172 1.231137932146543 0  0.5605474365462708 1.181642309638812 0  0.6855656887778322 -2.284642742762343 0  1.289320980836618 -1.685918744804048 0  3.587635667913422 -1.811465512252732 0  1.295778297634739 -3.312807108751953 0  3.71875 -4 0  -2.484718261547373 -1.66796875 0  2.54129472188067 -3.461766406157935 0  -1.584553768394408 -2.312930421172607 0  4.25 1.5 0  3.71875 4 0  4.25 3.5 0  -0.5940223816001772 -2.420151638210574 0  -0.8562891081864143 -3.379282219009797 0  -3.453125 -3.452486112007326 0  2.127009732348907 -2.486032047514898 0  -1.59375 -4 0  -2.65625 4 0  -3.662931834238117 3.076901539353532 0  0 -0.5397694439488789 0  1.75 -1 0  -3.103880145098495 2.114816279251727 0  -2.581814706610864 -2.827102548810904 0  4.25 -3.5 0  1.413547583931744 1.561783389431753 0  0.03834544098927617 -1.667993000915835 0  -0.7130888383380199 -1.276615003457198 0  3.73611063751562 -3.25 0  -3.75 -0.75 0  3.738677428252632 -1.272645143494735 0  3.75 -0.25 0  3.75 0.75 0  -3.75 0.25 0  3.677509907171241 1.394980185657518 0  0.1729724216486316 -3.448324400630145 0  0.4600609565193352 -1.022739784851008 0  2.65625 4 0  2.914663145853574 3.483761529335237 0  -4.25 3.5 0  -0.5517444534416718 2.892011263841753 0  0.5540646533827686 2.90270658464378 0  1.59375 -4 0  -1.37424348188583 -3.238005613405709 0  1.069349366464763 3.4619158840928 0  -1.069349366464763 3.4619158840928 0  -2.65625 -4 0  -0.53125 4 0  0 3.444176594402671 0  0.53125 4 0  2.65625 -4 0  1.59375 4 0  -1.59375 4 0  -0.53125 -4 0  0.53125 -4 0  1.400538445557165 2.272658812911446 0  2.212546125072832 2.359086493404626 0  2.110641017341508 1.512903708520227 0  -1.298251865999914 2.185050803358182 0  -1.370486518271877 1.53694545102918 0  -2.324422829193396 2.0304747341473 0  -3.451296905381042 3.55188349935487 0  -2.252980012983497 1.517709623472462 0  0.8314572325841179 -3.538377529121299 0  0.1651118913394702 -2.758829960694034 0  1.084171046623539 -2.82186797480777 0  -2.775042824686969 -2.338900091740216 0  -1.75 1 0  -3.75 1.224753010776072 0  3.703810778903693 -0.7608738526024619 0  3.200031682171212 -2.148071444649835 0  -2.75 -1 0  -3 -1.453494282248404 0  1.859375 -3.567610582724346 0  3.231983999099127 2.384647152984348 0  1.75 1 0  -4.25 -1.5 0  -4.25 -3.5 0  -4.25 -2.5 0  -2.75 1 0  2.75 -1 0  4.25 -2.5 0  -1.75 -1 0  -4.25 1.5 0  -4.25 2.5 0  2.75 1 0  4.25 2.5 0  3.6875 0.25 0  -3.8125 -0.25 0  -3.664134562492216 -2.996182596888396 0  3.039340426132883 1.477403214811896 0  2.896872754762841 2.986670048367758 0  -3.258366227721622 -2.429444505580982 0  2.446349413314191 -1.481576162462785 0  -3.681188252694018 0.7373765053880361 0  2.476579304073827 -2.956835371296098 0  -0.02432413470993235 1.231137932146543 0  -3.768701313157564 -2.01891287359335 0  -0.3003833714327223 -3.569391618787892 0  3.738758154515608 3.489032101672833 0  1.765125328401306 -1.507819279873149 0  -1.154609827091184 -1.474228359417639 0  -0.3782899039068293 -1.927124175896865 0  -1.0987830704712 -2.2876005584161 0  1.571527962491337 -2.811213963622433 0  3.453125 -3.618650513056585 0  -2.695779283221825 3.503022462680263 0  -0.9506183469926481 1.349169849337732 0  2.886282976328413 2.08830543919736 0  -1.859375 -3.613519447919825 0  2.196091517674023 2.822001312269779 0  -0.4331066709684581 1.885839750017772 0  -1.346579666326327 -1.896006401923806 0  0.3615381915131272 -1.976755936558648 0  3.821488887375865 1.832107028539069 0  -1.582441118860814 -2.791510074823685 0  1.783747011907793 -2.191347248790469 0  2.446726602920125 -2.174382785541248 0  1.00313605033398 1.376565418154098 0  0.4310990218857933 1.859718924919822 0  0.8431524738950877 2.273194731823086 0  3.79439950055633 2.954070419523107 0  -0.7019885456454824 -2.962688853250264 0  -1.809937825166108 1.444957047974289 0  -2.13958155756883 -2.768196505281545 0  0.8612976984758075 -1.229081800223121 0  -0.8630334387412009 2.251005472564539 0  3.321417426962666 -1.446259249210685 0  -0.5073366151708427 -0.8776512943898103 0  -3.793259760009133 2.110845711006983 0  -3.090402298858048 2.557693208058808 0  -2.247717610706491 2.710997145391222 0  -2.027243184081608 3.535216752426951 0  0.9153369981443099 -1.912568471518071 0  -0.3532759984188575 -1.502839791357869 0  -3.034134083998229 -3.330264448685832 0  1.859375 3.670572916666667 0  -1.255299096542601 3.070440031839168 0  1.255299096542601 3.070440031839168 0  2.921875 -3.661875333337763 0  3.850809893598207 -2.832606356593649 0  3.846137648733236 -2.161074698689199 0  3.154627290018481 -2.570713902241912 0  -2.117359130773687 -1.914105354596305 0  -2.117359130773687 -1.421832145403695 0  -0.2166182667981147 -2.594339128300363 0  -3 1.331317331737083 0  3.326005959697935 3.596580658075049 0  -1.197601683043599 -3.610505460419974 0  -3.889856060683448 2.720667060374939 0  -2.815848022447855 2.868208719765569 0  2.488151170525763 1.340091272643286 0  -0.01984015345470717 2.479395784383366 0  -1.983953407139114 2.270324157287136 0  3.443486976475133 -2.890195582518409 0  2.882927457718616 -2.899093911813329 0  2.535755967375144 3.616888299617402 0  1.977826951734316 3.17776613581278 0  -2.31114086362501 -3.138309084472732 0  -3.845245875189892 3.44277358595823 0  -3.844124779023461 -3.600984140212427 0  -3.63273202255171 -1.140464045103419 0  0.4256685825438592 0.7770057476315775 0  0.5 0.25 0  -0.4335625501304853 0.800687650391456 0  -1 0.75 0  -0.5 0.25 0  -0.125 0.375 0  0.7090071616509334 -2.683739213204448 0  2.241826269333066 1.953254035682167 0  -2.716207311637434 2.053646240820244 0  -3.135046077565108 1.725860417408368 0  -3.387623494611964 1.362376505388036 0  -3.323698444114522 2.875705721499792 0  -2.260619496018966 -3.622268554717983 0  0.2892748300192267 1.456467626467612 0  0.2058019989618376 -1.317000847560413 0  -0.8031267956087405 3.183702750144165 0  -2.921875 -3.708398957437165 0  0.05605170236062412 2.097542063723369 0  -3.925108109555673 1.733251805097824 0  -1.52946203820045 -1.333984375 0  3.222157718558086 2.773457380998749 0  0.8030592928274842 3.190279693453577 0  0.796875 3.728196537384717 0  0.265625 3.728196537384717 0  0.2718753184275909 3.178481371970769 0  -0.2593746815724092 3.722088297201336 0  -0.2718753184275909 3.178481371970769 0  -0.796875 3.728196537384717 0  -3.067074060966304 3.627403604812928 0  -2.370495949438301 3.705693279192516 0  -1.912578893425812 3.051839540671347 0  2.821284620673293 -2.10126004722262 0  -1 -0.75 0  1.39351036923774 3.670572916666667 0  -1.328125 3.734295535563151 0  -0.5 -0.25 0  0.3812225659848426 -0.6372342251415175 0  3.869830251596885 -3.62829620482169 0  1.488385856740025 -3.637488873017461 0  2.80237578941782 -1.369543994449923 0  1 -0.75 0  3.963145395057808 -1.75 0  -2.745637781387773 -1.953344094870445 0  -1.419661583232925 2.547121360921379 0  2.542807541797504 2.207256908599424 0  1.660446255818958 -3.256910570780324 0  0.9521578486482744 -3.19615981162048 0  -3.955499806374016 -3.238655190931554 0  1.428767536584573 -1.333838401207307 0  3.984375 4 0  2.543564155860945 2.91675373813093 0  -2.654045025260287 -1.348554065372634 0  -1.851535534560853 -2.553403479553177 0  -2.576968950851106 1.331317331737083 0  3.930113675501616 2.185653591086291 0  3.539352899584
[...]
<PointData  Scalars="f_985"> 
<DataArray  type="Float64"  Name="f_985"  format="ascii">0.0000000000000000e+00  0.0000000000000000e+00  0.0000000000000000e+00  0.0000000000000000e+00  0.0000000000000000e+00  0.0000000000000000e+00  0.0000000000000000e+00  0.0000000000000000e+00  0.0000000000000000e+00  4.5762693425933477e+01  4.5762693425933477e+01  4.5762693425933485e+01  4.5762693425933492e+01  4.5762693425933485e+01  0.0000000000000000e+00  0.0000000000000000e+00  0.0000000000000000e+00  0.0000000000000000e+00  0.0000000000000000e+00  0.0000000000000000e+00  0.0000000000000000e+00  4.5762693425933477e+01  0.0000000000000000e+00  0.0000000000000000e+00  0.0000000000000000e+00  0.0000000000000000e+00  0.0000000000000000e+00  0.0000000000000000e+00  0.0000000000000000e+00  0.0000000000000000e+00  0.0000000000000000e+00  0.0000000000000000e+00  1.2038198284138854e+01  4.2720096958383902e+00  1.3543739233492154e+01  1.4650657394845526e+01  9.4808486909166245e-01  1.4747567711200575e+00  1.4656585031939112e+01  1.5556338214656224e+01  0.0000000000000000e+00  0.0000000000000000e+00  1.8440232563085413e+01  0.0000000000000000e+00  0.0000000000000000e+00  1.6509906242112709e+01  3.9176878155208317e+00  0.0000000000000000e+00  0.0000000000000000e+00  0.0000000000000000e+00  0.0000000000000000e+00  0.0000000000000000e+00  7.3952948501433147e+00  0.0000000000000000e+00  4.5762693425933477e+01  4.5762693425933477e+01  0.0000000000000000e+00  0.0000000000000000e+00  4.5447352383132067e-01  2.5626308829060385e+01  8.1614803340458408e+00  2.3032596819336915e+00  0.0000000000000000e+00  0.0000000000000000e+00  4.7600693526848903e-01  9.8367853926418167e+00  6.6633022845001273e+00  2.4019533523723652e+01  5.3851740217488722e+00  4.5762693425933485e+01  0.0000000000000000e+00  6.4607761528236578e+00  2.3885373845682452e+01  1.5037851198100478e+00  6.8760432956386524e+00  3.0499840477861528e-01  1.4554355574689104e+00  2.0043093891551731e+00  2.7065754266444184e+01  4.1450151402617458e-01  1.7318010277522774e+01  7.9681429766088590e+00  2.6099383123376192e+01  7.4706359884244273e+00  5.8429601948707688e-01  5.1126119253126037e+00  5.6664824438263057e+00  2.8111688624565058e+01  2.3010471321091458e-01  4.5763923338908130e+00  2.7541598621896735e+00  5.2014017142275193e-01  2.0811180219127607e+01  9.4316368601626532e-01  0.0000000000000000e+00  2.2371765958874272e+00  0.0000000000000000e+00  6.2568792686754833e+00  8.4029890400675491e+00  2.0570893496801074e-01  0.0000000000000000e+00  4.5762693425933477e+01  0.0000000000000000e+00  4.5762693425933477e+01  0.0000000000000000e+00  0.0000000000000000e+00  4.5762693425933477e+01  1.3506947009631509e-01  0.0000000000000000e+00  0.0000000000000000e+00  0.0000000000000000e+00  0.0000000000000000e+00  1.4149357809817785e+01  1.5005114535825090e+01  1.0064449317623946e+01  2.9214695954478369e+01  1.6411560099633718e+01  2.9121607659616860e+01  1.4251288179174344e+01  6.9845060200424625e+00  0.0000000000000000e+00  8.0877566891415631e-01  4.9848349698677268e+00  2.9773255193284980e+00  0.0000000000000000e+00  0.0000000000000000e+00  0.0000000000000000e+00  7.1851928230206834e+00  2.5407496826728870e+00  1.7852194524659576e-01  1.7228966335482937e+01  0.0000000000000000e+00  0.0000000000000000e+00  1.9696517256825191e-01  2.1602016250254263e+01  4.5762693425933485e+01  5.2898053969689118e-01  9.2963707285609365e-01  0.0000000000000000e+00  3.2245765589882204e+01  1.6235392951718357e+01  7.4035371846255993e+00  2.6798618971166328e+00  1.7637602991150022e-02  1.7623309369355191e+01  2.2487673480675547e+01  2.1322407603936220e+01  5.1861480871020563e-03  1.7577124280718305e+01  4.0096884694945611e+00  2.9485405770864595e+01  0.0000000000000000e+00  4.0954426243248570e+00  0.0000000000000000e+00  5.4165320399447543e+00  9.5336002817558310e+00  0.0000000000000000e+00  2.0891465430883813e+00  5.2172571899196498e+00  1.8985243824486893e+00  0.0000000000000000e+00  0.0000000000000000e+00  3.7636798848278112e+00  0.0000000000000000e+00  0.0000000000000000e+00  0.0000000000000000e+00  0.0000000000000000e+00  0.0000000000000000e+00  0.0000000000000000e+00  1.9852214552209265e+01  1.8872703657557448e+01  3.4289810244614351e+01  4.0626768301981508e+00  2.9684409421769509e+00  1.2926814538353562e+00  1.5103599595902381e-01  8.8175532867441120e-01  4.2513866927030186e+00  9.1982839206526528e+00  1.2026813863726620e+01  8.2019410156603112e-01  0.0000000000000000e+00  6.8663354176448296e-02  2.3468314038400607e+01  1.5715164826882955e+01  0.0000000000000000e+00  3.1767355569403677e-01  4.4462080998063209e+00  1.2511260095462520e+01  4.5762693425933485e+01  0.0000000000000000e+00  0.0000000000000000e+00  0.0000000000000000e+00  0.0000000000000000e+00  4.5762693425933477e+01  0.0000000000000000e+00  0.0000000000000000e+00  0.0000000000000000e+00  0.0000000000000000e+00  4.5762693425933477e+01  0.0000000000000000e+00  2.5385228495685791e+01  4.4507951254805960e-03  2.0411787147204730e-01  3.0238288519392498e+01  8.5763930533011674e+00  4.5871540602317784e-01  3.4332799013547806e+01  2.0249735271352744e-02  1.0373753258927602e+01  1.8008654036783163e+01  1.7821676569489969e-01  2.5055611622906593e+00  1.7055353896607879e+00  3.4315856903275538e+01  4.0231601333456828e+00  1.0508076558923857e+01  4.9088899773588999e+00  1.2987384404445461e+01  2.0146770515923138e+00  4.1099280729368143e-01  5.1175920339964405e+00  1.9778595928981986e+01  7.2884516308449832e-01  1.2586994730310293e+01  1.0178482438000280e+01  3.8098614038365044e+00  1.7148989596592223e+01  9.3625488765768488e+00  2.5456426461110802e+00  2.1819257459035089e+01  2.1023633644821746e+01  3.2574222950389817e+01  1.9023352151469101e+01  1.7441245318559993e+01  3.4983641529813259e+00  4.6042704716230780e+00  1.3732455272978794e+00  1.5091252626860430e+00  3.3396671527227333e+01  6.1814150257541964e+00  2.6582854512286779e+01  8.8129232733544409e+00  1.7422000802601495e-01  5.6227820102439263e-01  1.3807593970495970e+00  7.4674938174768235e-01  2.2726154516592768e+01  1.2101604114379112e+01  3.7252194420303586e-01  3.3797061851865671e+00  2.7243800037328043e+00  9.5470544771389996e+00  2.6380456115000208e+00  3.5609807348684104e+00  6.6367107762301334e+00  1.1314769848756086e+01  1.5438597582679230e+00  8.8632132371459094e-01  8.4289028837090729e+00  2.3664240695311164e-01  2.4042851294689527e+00  1.2547549064204930e+00  1.3784714821559463e-01  7.0159136573472713e-01  3.7375787524985029e+01  1.0254696558902509e+01  1.9690278761575006e+00  6.3445808853673880e+00  9.5359713079306605e+00  3.5453066512776772e+00  8.6609253252054792e+00  9.9126463822516064e-01  8.4039897038630851e-02  6.2540359923709765e-02  6.9581145919939663e-02  3.2000067346565039e+01  4.5762693425933477e+01  9.7799165712929739e+00  0.0000000000000000e+00  0.0000000000000000e+00  1.6769933491999662e+01  1.2260703595935782e+01  2.5510586181047096e+01  8.2395456838658454e-01  3.9308373866738860e-01  1.6028801689513797e-01  3.7603433142795772e-01  5.0526771086097122e-01  2.1399902625866680e+01  2.1459050915927897e+01  3.4183916367695804e+00  1.9476818503602494e-01  1.3467811690207373e+01  9.5987992171862685e-02  1.6149631343801956e+00  8.8039790428816573e+00  7.4947625181554471e+00  2.4620182554542285e+00  2.0644844697188840e+00  6.3095626139504102e+00  1.6516235657254374e+00  4.8268220243711806e+00  1.1698355381579997e+00  2.0497550355419036e-01  3.4568257876304515e-01  1.5695416027991591e+00  2.0097879273231221e+01  0.0000000000000000e+00  3.3392106838997431e+00  7.7806200675291004e-01  0.0000000000000000e+00  3.3276202876851819e+01  9.6486889876401605e-01  3.6966890886300878e+00  3.5422482185443037e+01  4.5762693425933485e+01  6.8023136806452404e+00  7.5672911936883491e-01  3.3162291346081179e+00  2.0078086974085533e+01  7.7993954005050794e+00  7.7256423300649226e+00  8.0236037769562382e-02  3.7215452710264898e+01  0.0000000000000000e+00  1.0663749761082814e+01  3.7149329202551939e-01  2.1521098262049105e+00  4.0068127921366425e-01  5.1701553822343502e+00  1.0973265038749913e+01  1.8301354460350991e-01  4.8246232822630020e-02  1.0575534135556254e+01  4.5762693425933477e+01  5.9874511757064912e+00  2.5737297184777443e+01  1.0777025034040748e-01  2.6992899277565058e-01  7.5641097922576214e-02  2.5343589312495975e+01  1.3544407733536075e+00  4.5762693425933477e+01  3.0518050443976243e+01  2.4065224249214641e+01  1.2887563702022547e+01  2.3298478551166138e+01  3.8025967314575169e+01  1.6135417309189564e+00  1.3535487660057001e+01  1.0771648270378854e+01  1.9834227885958242e+01  3.7022559502433218e+01  1.2412410431068908e+01  6.3882713874505648e-01  3.3162660973584407e-01  8.4084915275427559e+00  2.1845405490780369e+01  2.7082812604607433e+01  1.3183789725216565e+01  2.0969872863478596e+00  2.8368204664864227e+00  3.5376411130466030e+00  6.3421355597905018e+00  5.0559836027872391e+00  3.3305917460641066e-01  0.0000000000000000e+00  2.0474641420632853e+01  2.3423904719773914e+00  1.8911535975434784e+01  2.8618209467105679e+01  1.3830952856492413e+00  2.7644966777281216e+01  4.6433997125235624e+00  9.8592563519056292e-02  6.4372306319678740e+00  7.6824036229852082e+00  6.1471293762764856e-01  4.1180466364433039e+00  7.5318691152408093e+00  2.6739820417788955e+00  3.6400007543463171e+00  5.0226149776117310e+00  3.2402719655607592e+00  8.1240352682627692e-01  8.4351697344550356e+00  7.3819972610278095e-01  0.0000000000000000e+00  1.3040646527537951e+00  1.7184891952550451e+01  3.0031012879280455e-01  3.7146458669233646e+00  3.0677851261610187e+00  3.3928781191563169e+00  2.6065343154435698e+01  2.3983812995821099e+00  1.1328406324158230e+01  5.9369879047347718e-01  1.3902544812762565e+01  2.3150843368856169e+01  0.0000000000000000e+00  2.4023408488863943e+01  4.5762693425933477e+01  2.3013847971274320e+01  1.1565878727223571e+00  4.5762693425933477e+01  9.9553893856104967e+00  3.7983322786588701e+01  2.6455858406828434e-02  0.0000000000000000e+00  9.0919135073707338e+00  6.6798342641069937e+00  5.3445998157390955e+00  9.6163018608703066e+00  1.5057963807491781e+00  1.4917151820179525e+01  1.2164331168294468e-01  8.2372885535564652e-03  0.0000000000000000e+00  7.5070943099262528e-03  0.0000000000000000e+00  1.4648547377097623e+01  0.0000000000000000e+00  1.1642192392778814e+01  3.3646569074395958e-03  1.3905496889908562e+00  1.2228870946104525e+01  1.4386465430561467e+01  6.2536557273985123e+00  8.2824345444612106e+00  3.1309646912264583e-01  1.4291917142618960e-01  7.5590706170761537e-02  2.1784106511277862e+01  0.0000000000000000e+00  1.1906758069272120e+01  3.6979905203501481e+01  3.5396000935805358e+00  1.1367210491927034e+01  6.5414177079661675e+00  4.2491223487978766e+00  6.4616420232431837e+00  8.2551270409051511e-02  2.6334859044180437e+01  1.5018682859256494e+01  1.2661620527938545e+01  9.2281474868645053e-01  3.2237644580761227e+01  1.2546726784914522e+01  0.0000000000000000e+00  1.1808058410663991e+00  1.3996408017635037e+01  1.2367028323901179e+00  2.8687198962105209e-01  3.1267773290348476e+01  2.9984417973830508e+00  3.3259894884892316e-01  9.7216861614425121e-01  2.5406446362819596e-01  3.5783077851586434e+01  2.6967736371975292e+01  3.7479373977568230e+01  7.2913428875943220e-01  1.9080141381376019e+00  1.7762208093316961e+01  2.8361993659142382e-01  3.6342611316756276e+01  1.4911544296559180e+01  1.9218836175781320e+00  4.4541649486008899e+00  5.8283496866706761e+00  3.6732213838331198e+01  5.5425341658026539e-01  1.5344226035992689e+01  2.7140750950675089e-02  2.0117001152525398e+00  0.0000000000000000e+00  3.3219266262664963e-02  1.6407842463870313e+01  1.9703976285967325e+01  1.4618560616620094e+01  9.8278662881931460e+00  2.9818055008137754e+00  0.0000000000000000e+00  1.1717475375890991e+00  3.6600628590168398e+00  0.0000000000000000e+00  5.9710012246998803e-02  0.0000000000000000e+00  1.0193100077036421e+01  4.5762693425933477e+01  0.0000000000000000e+00  0.0000000000000000e+00  2.3673915274920647e+00  3.2654685018638922e+01  6.5138749903813720e-01  0.0000000000000000e+00  4.3799158758627685e+00  8.1331064455154980e+00  1.1932622053034729e+01  0.0000000000000000e+00  0.0000000000000000e+00  9.0248306840253623e-01  1.7065734698079975e+00  0.0000000000000000e+00  5.6254642309853442e-01  7.9593134015103093e+00  1.3826215837078815e+01  2.9271526266190953e+01  7.9453524936558217e+00  3.2736792539249443e+01  4.5762693425933477e+01  4.5762693425933485e+01  1.1625868624352680e+01  7.7389143229584590e-03  8.2878181058892442e-03  2.2027901232327136e-02  2.9840910062280787e-03  3.1715237305443491e+01  4.5762693425933477e+01  3.1362201934599145e+01  3.1080394996625198e+01  3.3140146445924177e-03  1.1021253536888652e+01  2.3288659528086901e+00  1.7916511919146010e+00  1.8695452470424081e+00  1.9370893485309569e+01  1.7782766785456001e+01  1.0439141098225075e+00  0.0000000000000000e+00  2.3069364625236766e+01  8.8094954953768756e+00  0.0000000000000000e+00  0.0000000000000000e+00  1.0847529416181336e+01  3.8152806118108565e+01  1.2198914306849426e+01  2.1796329896812772e+00  4.8255761005944517e+00  4.7544243834140927e+00  2.3103435593626944e+00  4.3716403110412392e+00  1.1077483635779952e+01  3.1479200246805599e+00  1.3883434628941632e-01  6.1876653261563608e-02  1.1442589529565679e+00  7.7367824888579328e-01  1.8704370256414699e-01  1.5561459821996115e-01  7.3727571275433359e+00  8.0728522412077748e+00  1.0655373270268976e+01  2.2296230325271851e+00  1.6436861776301463e+01  4.1799797200192484e-01  6.8490194264864968e-01  0.0000000000000000e+00  2.6079175009448354e+00  6.0098466884418080e+00  2.3037145761739697e+00  1.5365460847492454e+00  4.9368567567782966e+00  2.8708076309531809e+00  3.2240765745191858e+01  1.3704908664722528e+00  2.8944764187174519e+00  3.7125910906892040e-01  4.3263761631544702e+00  2.2535462428872286e+01  5.9966524519236062e+00  1.1553190750907904e+01  1.5021082910256478e+01  1.0012878950501145e+01  4.3729443949058833e-01  6.4857926468733576e-02  0.0000000000000000e+00  3.3758098312608324e+00  1.5697279912451634e+01  5.8362355699782642e-01  0.0000000000000000e+00  0.0000000000000000e+00  3.0288106693002042e+01  4.0238373450570208e+01  5.5587365643567761e+00  3.2863843800294945e+00  4.0945152823440685e+00  6.8916632576437404e+00  9.5104994102960183e-01  4.2035218511834076e+00  0.0000000000000000e+00  0.0000000000000000e+00  0.0000000000000000e+00  0.0000000000000000e+00  0.0000000000000000e+00  0.0000000000000000e+00  0.0000000000000000e+00  0.0000000000000000e+00  0.0000000000000000e+00  0.0000000000000000e+00  0.0000000000000000e+00  2.2240759276493094e+00  0.0000000000000000e+00  0.0000000000000000e+00  0.0000000000000000e+00  0.0000000000000000e+00  0.0000000000000000e+00  0.0000000000000000e+00  0.0000000000000000e+00  0.0000000000000000e+00  2.2203725263435949e+01  1.8008534085172979e+01  2.2548577268462338e+01  2.5344313732519510e+01  0.0000000000000000e+00  0.0000000000000000e+00  </DataArray> 
</PointData> 
</Piece>
</UnstructuredGrid>
</VTKFile>