<?xml version="1.0"?>
<VTKFile type="UnstructuredGrid"  version="0.1"  >
<UnstructuredGrid>
<Piece  NumberOfPoints="618" NumberOfCells="1080">
<Points>
<DataArray  type="Float64"  NumberOfComponents="3"  format="ascii">-4.25 4 0  -4.25 -4 0  4.25 -4 0  4.25 4 0  -1.25 1 0  -0.25 0 0  -1.25 -1 0  -3.25 -1 0  -3.25 1 0  1.25 1 0  3.25 1 0  3.25 -1 0  1.25 -1 0  0.25 0 0  0 -4 0  0 4 0  -4.25 0 0  4.25 0 0  -3.25 0 0  -4.25 2 0  -4.25 -2 0  3.25 0 0  4.25 -2 0  4.25 2 0  -4.25 1 0  -4.25 -1 0  4.25 -1 0  4.25 1 0  2.125 -4 0  -2.125 -4 0  -2.125 4 0  2.125 4 0  0 -2.239583333333333 0  -1.0625 2.682291666666667 0  1.0625 2.682291666666667 0  2.732954545454545 -2.517045454545455 0  -2.652986895301826 2.487057585738185 0  -2.25 -2.3359375 0  2.732954545454545 2.517045454545455 0  -2.220446049250313e-16 1.712275864293086 0  1.0625 -4 0  -1.0625 -4 0  1.367473250008284 -2.368504187683424 0  -3.1875 -4 0  -4.25 -3 0  -0.1296853207810323 -1.120314679218968 0  -1.104177184613194 -2.774001294888289 0  -4.25 3 0  -3.1875 4 0  3.1875 -4 0  1.0625 4 0  -1.0625 4 0  0 2.912786149538867 0  3.1875 4 0  2.25 1 0  2.25 -1 0  4.25 3 0  4.25 -3 0  -3.168025852734163 -2.914855593530048 0  1.835186788703338 1.967454154770984 0  0.6113906733843583 -3.071422739535278 0  -1.774938872060195 1.910101868609392 0  -2.25 -1 0  -2.25 1 0  -3.132312635730683 -1.954144290196067 0  1.981433392649784 -3.075046883716055 0  -0.8645017377304687 -1.861306024041929 0  0.6074134196061652 -1.602057299882968 0  -0.2739244448957433 -3.08151570898844 0  0.75 0.5 0  -0.75 0.5 0  -0.8937995122115957 1.811894385777969 0  0.884082324512012 1.810811355569967 0  -1.59375 3.341145833333333 0  1.59375 3.341145833333333 0  -3.529712121366897 2.5 0  -1.903284444846377 -3.146619224730244 0  -1.75 -1.66796875 0  2.111489472208695 -1.879492626314222 0  -3.08111685970403 3.186693221250952 0  3.364382300660234 1.885617699339766 0  3.573778515491998 -2.5 0  2.903954140703144 -1.728692745946152 0  2.390142767929403 3.242602068217662 0  -2.75 1.662634663474167 0  3.372533770890645 3.13214525657131 0  3.16728417474861 -3.195057010178064 0  2.589941262541426 1.742604416426647 0  -3.525246989223928 1.724753010776072 0  0.53125 3.456393074769434 0  -0.53125 3.456393074769434 0  -2.606862098331335 -3.419315967153206 0  0 0.75 0  -2.327381224256022 3.167117555031311 0  -3.71875 -4 0  -1.790317893771425 2.639041475970867 0  -3.71875 4 0  3.735226909179794 2.5 0  -0.434689127717023 2.352426619417106 0  -3.745009551939732 -2.5 0  -0.75 -0.5 0  0.75 -0.5 0  4.25 0.5 0  3.25 0.5 0  4.25 -1.5 0  4.25 -0.5 0  3.25 -0.5 0  -3.709049205194704 -1.540950794805296 0  -4.25 -0.5 0  -3.25 -0.5 0  -4.25 0.5 0  -3.25 0.5 0  0.3806308022205874 2.312531006915977 0  1.761206624332812 2.662514594411487 0  -0.5060765330222172 1.231137932146543 0  0.5605474365462708 1.181642309638812 0  0.6855656887778322 -2.284642742762343 0  1.289320980836618 -1.685918744804048 0  3.587635667913422 -1.811465512252732 0  1.295778297634739 -3.312807108751953 0  3.71875 -4 0  -2.484718261547373 -1.66796875 0  2.54129472188067 -3.461766406157935 0  -1.584553768394408 -2.312930421172607 0  4.25 1.5 0  3.71875 4 0  4.25 3.5 0  -0.5940223816001772 -2.420151638210574 0  -0.8562891081864143 -3.379282219009797 0  -3.453125 -3.452486112007326 0  2.127009732348907 -2.486032047514898 0  -1.59375 -4 0  -2.65625 4 0  -3.662931834238117 3.076901539353532 0  0 -0.5397694439488789 0  1.75 -1 0  -3.103880145098495 2.114816279251727 0  -2.581814706610864 -2.827102548810904 0  4.25 -3.5 0  1.413547583931744 1.561783389431753 0  0.03834544098927617 -1.667993000915835 0  -0.7130888383380199 -1.276615003457198 0  3.73611063751562 -3.25 0  -3.75 -0.75 0  3.738677428252632 -1.272645143494735 0  3.75 -0.25 0  3.75 0.75 0  -3.75 0.25 0  3.677509907171241 1.394980185657518 0  0.1729724216486316 -3.448324400630145 0  0.4600609565193352 -1.022739784851008 0  2.65625 4 0  2.914663145853574 3.483761529335237 0  -4.25 3.5 0  -0.5517444534416718 2.892011263841753 0  0.5540646533827686 2.90270658464378 0  1.59375 -4 0  -1.37424348188583 -3.238005613405709 0  1.069349366464763 3.4619158840928 0  -1.069349366464763 3.4619158840928 0  -2.65625 -4 0  -0.53125 4 0  0 3.444176594402671 0  0.53125 4 0  2.65625 -4 0  1.59375 4 0  -1.59375 4 0  -0.53125 -4 0  0.53125 -4 0  1.400538445557165 2.272658812911446 0  2.212546125072832 2.359086493404626 0  2.110641017341508 1.512903708520227 0  -1.298251865999914 2.185050803358182 0  -1.370486518271877 1.53694545102918 0  -2.324422829193396 2.0304747341473 0  -3.451296905381042 3.55188349935487 0  -2.252980012983497 1.517709623472462 0  0.8314572325841179 -3.538377529121299 0  0.1651118913394702 -2.758829960694034 0  1.084171046623539 -2.82186797480777 0  -2.775042824686969 -2.338900091740216 0  -1.75 1 0  -3.75 1.224753010776072 0  3.703810778903693 -0.7608738526024619 0  3.200031682171212 -2.148071444649835 0  -2.75 -1 0  -3 -1.453494282248404 0  1.859375 -3.567610582724346 0  3.231983999099127 2.384647152984348 0  1.75 1 0  -4.25 -1.5 0  -4.25 -3.5 0  -4.25 -2.5 0  -2.75 1 0  2.75 -1 0  4.25 -2.5 0  -1.75 -1 0  -4.25 1.5 0  -4.25 2.5 0  2.75 1 0  4.25 2.5 0  3.6875 0.25 0  -3.8125 -0.25 0  -3.664134562492216 -2.996182596888396 0  3.039340426132883 1.477403214811896 0  2.896872754762841 2.986670048367758 0  -3.258366227721622 -2.429444505580982 0  2.446349413314191 -1.481576162462785 0  -3.681188252694018 0.7373765053880361 0  2.476579304073827 -2.956835371296098 0  -0.02432413470993235 1.231137932146543 0  -3.768701313157564 -2.01891287359335 0  -0.3003833714327223 -3.569391618787892 0  3.738758154515608 3.489032101672833 0  1.765125328401306 -1.507819279873149 0  -1.154609827091184 -1.474228359417639 0  -0.3782899039068293 -1.927124175896865 0  -1.0987830704712 -2.2876005584161 0  1.571527962491337 -2.811213963622433 0  3.453125 -3.618650513056585 0  -2.695779283221825 3.503022462680263 0  -0.9506183469926481 1.349169849337732 0  2.886282976328413 2.08830543919736 0  -1.859375 -3.613519447919825 0  2.196091517674023 2.822001312269779 0  -0.4331066709684581 1.885839750017772 0  -1.346579666326327 -1.896006401923806 0  0.3615381915131272 -1.976755936558648 0  3.821488887375865 1.832107028539069 0  -1.582441118860814 -2.791510074823685 0  1.783747011907793 -2.191347248790469 0  2.446726602920125 -2.174382785541248 0  1.00313605033398 1.376565418154098 0  0.4310990218857933 1.859718924919822 0  0.8431524738950877 2.273194731823086 0  3.79439950055633 2.954070419523107 0  -0.7019885456454824 -2.962688853250264 0  -1.809937825166108 1.444957047974289 0  -2.13958155756883 -2.768196505281545 0  0.8612976984758075 -1.229081800223121 0  -0.8630334387412009 2.251005472564539 0  3.321417426962666 -1.446259249210685 0  -0.5073366151708427 -0.8776512943898103 0  -3.793259760009133 2.110845711006983 0  -3.090402298858048 2.557693208058808 0  -2.247717610706491 2.710997145391222 0  -2.027243184081608 3.535216752426951 0  0.9153369981443099 -1.912568471518071 0  -0.3532759984188575 -1.502839791357869 0  -3.034134083998229 -3.330264448685832 0  1.859375 3.670572916666667 0  -1.255299096542601 3.070440031839168 0  1.255299096542601 3.070440031839168 0  2.921875 -3.661875333337763 0  3.850809893598207 -2.832606356593649 0  3.846137648733236 -2.161074698689199 0  3.154627290018481 -2.570713902241912 0  -2.117359130773687 -1.914105354596305 0  -2.117359130773687 -1.421832145403695 0  -0.2166182667981147 -2.594339128300363 0  -3 1.331317331737083 0  3.326005959697935 3.596580658075049 0  -1.197601683043599 -3.610505460419974 0  -3.889856060683448 2.720667060374939 0  -2.815848022447855 2.868208719765569 0  2.488151170525763 1.340091272643286 0  -0.01984015345470717 2.479395784383366 0  -1.983953407139114 2.270324157287136 0  3.443486976475133 -2.890195582518409 0  2.882927457718616 -2.899093911813329 0  2.535755967375144 3.616888299617402 0  1.977826951734316 3.17776613581278 0  -2.31114086362501 -3.138309084472732 0  -3.845245875189892 3.44277358595823 0  -3.844124779023461 -3.600984140212427 0  -3.63273202255171 -1.140464045103419 0  0.4256685825438592 0.7770057476315775 0  0.5 0.25 0  -0.4335625501304853 0.800687650391456 0  -1 0.75 0  -0.5 0.25 0  -0.125 0.375 0  0.7090071616509334 -2.683739213204448 0  2.241826269333066 1.953254035682167 0  -2.716207311637434 2.053646240820244 0  -3.135046077565108 1.725860417408368 0  -3.387623494611964 1.362376505388036 0  -3.323698444114522 2.875705721499792 0  -2.260619496018966 -3.622268554717983 0  0.2892748300192267 1.456467626467612 0  0.2058019989618376 -1.317000847560413 0  -0.8031267956087405 3.183702750144165 0  -2.921875 -3.708398957437165 0  0.05605170236062412 2.097542063723369 0  -3.925108109555673 1.733251805097824 0  -1.52946203820045 -1.333984375 0  3.222157718558086 2.773457380998749 0  0.8030592928274842 3.190279693453577 0  0.796875 3.728196537384717 0  0.265625 3.728196537384717 0  0.2718753184275909 3.178481371970769 0  -0.2593746815724092 3.722088297201336 0  -0.2718753184275909 3.178481371970769 0  -0.796875 3.728196537384717 0  -3.067074060966304 3.627403604812928 0  -2.370495949438301 3.705693279192516 0  -1.912578893425812 3.051839540671347 0  2.821284620673293 -2.10126004722262 0  -1 -0.75 0  1.39351036923774 3.670572916666667 0  -1.328125 3.734295535563151 0  -0.5 -0.25 0  0.3812225659848426 -0.6372342251415175 0  3.869830251596885 -3.62829620482169 0  1.488385856740025 -3.637488873017461 0  2.80237578941782 -1.369543994449923 0  1 -0.75 0  3.963145395057808 -1.75 0  -2.745637781387773 -1.953344094870445 0  -1.419661583232925 2.547121360921379 0  2.542807541797504 2.207256908599424 0  1.660446255818958 -3.256910570780324 0  0.9521578486482744 -3.19615981162048 0  -3.955499806374016 -3.238655190931554 0  1.428767536584573 -1.333838401207307 0  3.984375 4 0  2.543564155860945 2.91675373813093 0  -2.654045025260287 -1.348554065372634 0  -1.851535534560853 -2.553403479553177 0  -2.576968950851106 1.331317331737083 0  3.930113675501616 2.185653591086291 0  3.539352899584
[...]
<PointData  Scalars="f_1048"> 
<DataArray  type="Float64"  Name="f_1048"  format="ascii">0.0000000000000000e+00  0.0000000000000000e+00  0.0000000000000000e+00  0.0000000000000000e+00  0.0000000000000000e+00  0.0000000000000000e+00  0.0000000000000000e+00  0.0000000000000000e+00  0.0000000000000000e+00  4.8813539654329063e+01  4.8813539654329063e+01  4.8813539654329063e+01  4.8813539654329055e+01  4.8813539654329063e+01  0.0000000000000000e+00  0.0000000000000000e+00  0.0000000000000000e+00  0.0000000000000000e+00  0.0000000000000000e+00  0.0000000000000000e+00  0.0000000000000000e+00  4.8813539654329063e+01  0.0000000000000000e+00  0.0000000000000000e+00  0.0000000000000000e+00  0.0000000000000000e+00  0.0000000000000000e+00  0.0000000000000000e+00  0.0000000000000000e+00  0.0000000000000000e+00  0.0000000000000000e+00  0.0000000000000000e+00  1.2840744836414773e+01  4.5568103422276147e+00  1.4446655182391639e+01  1.5627367887835224e+01  1.0112905270311066e+00  1.5730738891947276e+00  1.5633690700735055e+01  1.6593427428966645e+01  0.0000000000000000e+00  0.0000000000000000e+00  1.9669581400624445e+01  0.0000000000000000e+00  0.0000000000000000e+00  1.7610566658253557e+01  4.1788670032222193e+00  0.0000000000000000e+00  0.0000000000000000e+00  0.0000000000000000e+00  0.0000000000000000e+00  0.0000000000000000e+00  7.8883145068195359e+00  0.0000000000000000e+00  4.8813539654329063e+01  4.8813539654329063e+01  0.0000000000000000e+00  0.0000000000000000e+00  4.8477175875340861e-01  2.7334729417664427e+01  8.7055790229822296e+00  2.4568103273959383e+00  0.0000000000000000e+00  0.0000000000000000e+00  5.0774073095305483e-01  1.0492571085484604e+01  7.1075224368001360e+00  2.5620835758638563e+01  5.7441856231987973e+00  4.8813539654329063e+01  0.0000000000000000e+00  6.8914945630119027e+00  2.5477732102061285e+01  1.6040374611307171e+00  7.3344461820145668e+00  3.2533163176385643e-01  1.5524645946335036e+00  2.1379300150988518e+00  2.8870137884207114e+01  4.4213494829458622e-01  1.8472544296024299e+01  8.4993525083827777e+00  2.7839341998267930e+01  7.9686783876527265e+00  6.2324908745288199e-01  5.4534527203334422e+00  6.0442479400813909e+00  2.9985801199536073e+01  2.4544502742497559e-01  4.8814851561502026e+00  2.9377705196689865e+00  5.5481618285093515e-01  2.2198592233736115e+01  1.0060412650840160e+00  0.0000000000000000e+00  2.3863217022799224e+00  0.0000000000000000e+00  6.6740045532538508e+00  8.9631883094053908e+00  2.1942286396587810e-01  0.0000000000000000e+00  4.8813539654329063e+01  0.0000000000000000e+00  4.8813539654329063e+01  0.0000000000000000e+00  0.0000000000000000e+00  4.8813539654329063e+01  1.4407410143606944e-01  0.0000000000000000e+00  0.0000000000000000e+00  0.0000000000000000e+00  0.0000000000000000e+00  1.5092648330472310e+01  1.6005455504880107e+01  1.0735412605465550e+01  3.1162342351443602e+01  1.7505664106275962e+01  3.1063048170257989e+01  1.5201374057785957e+01  7.4501397547119579e+00  0.0000000000000000e+00  8.6269404684176665e-01  5.3171573011922408e+00  3.1758138872837303e+00  0.0000000000000000e+00  0.0000000000000000e+00  0.0000000000000000e+00  7.6642056778887300e+00  2.7101329948510786e+00  1.9042340826303542e-01  1.8377564091181796e+01  0.0000000000000000e+00  0.0000000000000000e+00  2.1009618407280203e-01  2.3042150666937872e+01  4.8813539654329063e+01  5.6424590901001725e-01  9.9161287771316609e-01  0.0000000000000000e+00  3.4395483295874371e+01  1.7317752481832915e+01  7.8971063302673059e+00  2.8585193569244067e+00  1.8813443190560018e-02  1.8798196660645537e+01  2.3986851712720586e+01  2.2743901444198645e+01  5.5318912929088618e-03  1.8748932566099537e+01  4.2770010341275295e+00  3.1451099488922246e+01  0.0000000000000000e+00  4.3684721326131841e+00  0.0000000000000000e+00  5.7776341759410705e+00  1.0169173633872889e+01  0.0000000000000000e+00  2.2284229792942734e+00  5.5650743359142973e+00  2.0250926746119355e+00  0.0000000000000000e+00  0.0000000000000000e+00  4.0145918771496660e+00  0.0000000000000000e+00  0.0000000000000000e+00  0.0000000000000000e+00  0.0000000000000000e+00  0.0000000000000000e+00  0.0000000000000000e+00  2.1175695522356559e+01  2.0130883901394615e+01  3.6575797594255320e+01  4.3335219522113615e+00  3.1663370049887485e+00  1.3788602174243796e+00  1.6110506235629202e-01  9.4053901725270528e-01  4.5348124722165517e+00  9.8115028486961595e+00  1.2828601454641726e+01  8.7487370833709976e-01  0.0000000000000000e+00  7.3240911121544891e-02  2.5032868307627304e+01  1.6762842482008473e+01  0.0000000000000000e+00  3.3885179274030580e-01  4.7426219731267416e+00  1.3345344101826690e+01  4.8813539654329063e+01  0.0000000000000000e+00  0.0000000000000000e+00  0.0000000000000000e+00  0.0000000000000000e+00  4.8813539654329063e+01  0.0000000000000000e+00  0.0000000000000000e+00  0.0000000000000000e+00  0.0000000000000000e+00  4.8813539654329063e+01  0.0000000000000000e+00  2.7077577062064837e+01  4.7475148005126366e-03  2.1772572957018382e-01  3.2254174420685338e+01  9.1481525901879177e+00  4.8929643309138954e-01  3.6621652281117669e+01  2.1599717622776266e-02  1.1065336809522773e+01  1.9209230972568715e+01  1.9009788340789302e-01  2.6725985731100361e+00  1.8192377489715077e+00  3.6603580696827230e+01  4.2913708089020606e+00  1.1208614996185450e+01  5.2361493091828262e+00  1.3853210031408491e+01  2.1489888550318001e+00  4.3839232777992665e-01  5.4587648362628700e+00  2.1097168990914131e+01  7.7743484062346491e-01  1.3426127712330986e+01  1.0857047933866971e+01  4.0638521640922720e+00  1.8292255569698362e+01  9.9867188016819721e+00  2.7153521558518188e+00  2.3273874622970748e+01  2.2425209221143191e+01  3.4745837813749127e+01  2.0291575628233709e+01  1.8603995006463990e+01  3.7315884298467483e+00  4.9112218363979476e+00  1.4647952291177382e+00  1.6097336135317788e+00  3.5623116295709160e+01  6.5935093608044788e+00  2.8355044813105881e+01  9.4004514915780728e+00  1.8583467522774932e-01  5.9976341442601910e-01  1.4728100235195705e+00  7.9653267386419424e-01  2.4241231484365617e+01  1.2908377722004383e+01  3.9735674048323816e-01  3.6050199308656738e+00  2.9060053373149906e+00  1.0183524775614936e+01  2.8139153189333546e+00  3.7983794505263013e+00  7.0791581613121393e+00  1.2069087838673155e+01  1.6467837421524512e+00  9.4540941196223049e-01  8.9908297426230082e+00  2.5241856741665242e-01  2.5645708047668836e+00  1.3384052335151921e+00  1.4703695809663425e-01  7.4836412345037573e-01  3.9867506693317381e+01  1.0938342996162680e+01  2.1002964012346670e+00  6.7675529443918760e+00  1.0171702728459367e+01  3.7816604280295252e+00  9.2383203468858497e+00  1.0573489474401712e+00  8.9642556841206256e-02  6.6709717251957054e-02  7.4219888981268939e-02  3.4133405169669388e+01  4.8813539654329063e+01  1.0431911009379171e+01  0.0000000000000000e+00  0.0000000000000000e+00  1.7887929058132986e+01  1.3078083835664829e+01  2.7211291926450251e+01  8.7888487294569018e-01  4.1928932124521462e-01  1.7097388468814720e-01  4.0110328685648811e-01  5.3895222491836925e-01  2.2826562800924453e+01  2.2889654310323099e+01  3.6462844125542175e+00  2.0775273070509320e-01  1.4365665802887873e+01  1.0238719164998690e-01  1.7226273433388752e+00  9.3909109790737677e+00  7.9944133526991452e+00  2.6261528058178452e+00  2.2021167677001450e+00  6.7302001215471030e+00  1.7617318034404672e+00  5.1486101593292615e+00  1.2478245740351999e+00  2.1864053712446974e-01  3.6872808401391455e-01  1.6741777096524362e+00  2.1437737891446638e+01  0.0000000000000000e+00  3.5618247294930616e+00  8.2993280720310381e-01  0.0000000000000000e+00  3.5494616401975286e+01  1.0291934920149499e+00  3.9431350278720929e+00  3.7783980997805884e+01  4.8813539654329063e+01  7.2558012593549179e+00  8.0717772732675719e-01  3.5373110769153255e+00  2.1416626105691240e+01  8.3193550938720815e+00  8.2406851520692452e+00  8.5585106954199866e-02  3.9696482890949227e+01  0.0000000000000000e+00  1.1374666411821677e+01  3.9625951149388744e-01  2.2955838146185696e+00  4.2739336449457510e-01  5.5148324077166411e+00  1.1704816041333245e+01  1.9521444757707726e-01  5.1462648344138676e-02  1.1280569744593338e+01  4.8813539654329063e+01  6.3866145874202589e+00  2.7453116997095954e+01  1.1495493369643463e-01  2.8792425896069390e-01  8.0683837784081294e-02  2.7033161933329051e+01  1.4447368249105150e+00  4.8813539654329063e+01  3.2552587140241343e+01  2.5669572532495614e+01  1.3746734615490713e+01  2.4851710454577219e+01  4.0561031802213513e+01  1.7211111796468863e+00  1.4437853504060811e+01  1.1489758155070785e+01  2.1156509745022134e+01  3.9490730135928779e+01  1.3239904459806837e+01  6.8141561466139333e-01  3.5373505038490038e-01  8.9690576293789430e+00  2.3301765856832404e+01  2.8888333444914579e+01  1.4062709040231006e+01  2.2367864387710497e+00  3.0259418309188515e+00  3.7734838539163764e+00  6.7649445971098672e+00  5.3930491763063895e+00  3.5526311958017137e-01  0.0000000000000000e+00  2.1839617515341708e+01  2.4985498367758834e+00  2.0172305040463765e+01  3.0526090098246055e+01  1.4753016380258572e+00  2.9487964562433291e+01  4.9529596933584692e+00  1.0516540108699336e-01  6.8663793407657314e+00  8.1945638645175514e+00  6.5569380013615841e-01  4.3925830788728550e+00  8.0339937229235314e+00  2.8522475112308219e+00  3.8826674713027365e+00  5.3574559761191756e+00  3.4562900965981429e+00  8.6656376194802853e-01  8.9975143834187072e+00  7.8741304117629951e-01  0.0000000000000000e+00  1.3910022962707147e+00  1.8330551416053812e+01  3.2033080404565822e-01  3.9622889247182540e+00  3.2723041345717521e+00  3.6190699937667388e+00  2.7803032698064751e+01  2.5582733862209173e+00  1.2083633412435438e+01  6.3327870983837586e-01  1.4829381133613401e+01  2.4694232926779911e+01  0.0000000000000000e+00  2.5624969054788199e+01  4.8813539654329063e+01  2.4548104502692610e+01  1.2336937309038472e+00  4.8813539654329063e+01  1.0619082011317863e+01  4.0515544305694618e+01  2.8219582300617000e-02  0.0000000000000000e+00  9.6980410745287813e+00  7.1251565483807928e+00  5.7009064701217005e+00  1.0257388651594992e+01  1.6061828061324566e+00  1.5911628608191496e+01  1.2975286579514100e-01  8.7864411237935629e-03  0.0000000000000000e+00  8.0075672639213381e-03  0.0000000000000000e+00  1.5625117202237467e+01  0.0000000000000000e+00  1.2418338552297406e+01  3.5889673679355698e-03  1.4832530015902456e+00  1.3044129009178155e+01  1.5345563125932228e+01  6.6705661092250788e+00  8.8345968474252903e+00  3.3396956706415548e-01  1.5244711618793552e-01  8.0630086582145599e-02  2.3236380278696373e+01  0.0000000000000000e+00  1.2700541940556926e+01  3.9445232217068252e+01  3.7755734331525717e+00  1.2125024524722170e+01  6.9775122218305787e+00  4.5323971720510663e+00  6.8924181581260635e+00  8.8054688436321610e-02  2.8090516313792484e+01  1.6019928383206921e+01  1.3505728563134443e+01  9.8433573193221380e-01  3.4386820886145301e+01  1.3383175237242151e+01  0.0000000000000000e+00  1.2595262304708255e+00  1.4929501885477377e+01  1.3191496878827922e+00  3.0599678892912219e-01  3.3352291509705069e+01  3.1983379172085873e+00  3.5477221210551807e-01  1.0369798572205347e+00  2.7100209453674240e-01  3.8168616375025529e+01  2.8765585463440324e+01  3.9977998909406139e+01  7.7774324134339445e-01  2.0352150806801088e+00  1.8946355299538105e+01  3.0252793236418524e-01  3.8765452071206681e+01  1.5905647249663120e+01  2.0500091920833401e+00  4.7511092785076183e+00  6.2169063324487244e+00  3.9181028094219954e+01  5.9120364435228290e-01  1.6367174438392194e+01  2.8950134347386754e-02  2.1458134562693756e+00  0.0000000000000000e+00  3.5433884013509290e-02  1.7501698628128338e+01  2.1017574705031830e+01  1.5593131324394768e+01  1.0483057374072683e+01  3.1805925342013617e+00  0.0000000000000000e+00  1.2498640400950378e+00  3.9040670496179608e+00  0.0000000000000000e+00  6.3690679730132080e-02  0.0000000000000000e+00  1.0872640082172190e+01  4.8813539654329063e+01  0.0000000000000000e+00  0.0000000000000000e+00  2.5252176293248696e+00  3.4831664019881536e+01  6.9481333230734665e-01  0.0000000000000000e+00  4.6719102675869530e+00  8.6753135418832006e+00  1.2728130189903716e+01  0.0000000000000000e+00  0.0000000000000000e+00  9.6264860629603877e-01  1.8203450344618637e+00  0.0000000000000000e+00  6.0004951797176986e-01  8.4899342949443266e+00  1.4747963559550730e+01  3.1222961350603679e+01  8.4750426598995414e+00  3.4919245375199409e+01  4.8813539654329063e+01  4.8813539654329063e+01  1.2400926532642861e+01  8.2548419444890258e-03  8.8403393129485273e-03  2.3496427981148944e-02  3.1830304066432845e-03  3.3829586459139726e+01  4.8813539654329063e+01  3.3453015396905741e+01  3.3152421329733549e+01  3.5349489542319131e-03  1.1756003772681229e+01  2.4841236829959357e+00  1.9110946047089064e+00  1.9941815968452348e+00  2.0662286384330212e+01  1.8968284571153077e+01  1.1135083838106745e+00  0.0000000000000000e+00  2.4607322266919219e+01  9.3967951950686679e+00  0.0000000000000000e+00  0.0000000000000000e+00  1.1570698043926763e+01  4.0696326525982464e+01  1.3012175260639388e+01  2.3249418556600276e+00  5.1472811739674160e+00  5.0713860089750327e+00  2.4643664633202080e+00  4.6630829984439881e+00  1.1815982544831947e+01  3.3577813596592621e+00  1.4808996937537741e-01  6.6001763479001191e-02  1.2205428831536733e+00  8.2525679881151270e-01  1.9951328273509003e-01  1.6598890476795858e-01  7.8642742693795560e+00  8.6110423906216180e+00  1.1365731488286906e+01  2.3782645680289987e+00  1.7532652561388222e+01  4.4586450346871970e-01  7.3056207215855939e-01  0.0000000000000000e+00  2.7817786676744922e+00  6.4105031343379340e+00  2.4572955479189011e+00  1.6389824903991945e+00  5.2659805405635201e+00  3.0621948063500595e+00  3.4390150128204645e+01  1.4618569242370703e+00  3.0874415132986148e+00  3.9600971634018184e-01  4.6148012406981040e+00  2.4037826590797106e+01  6.3964292820518462e+00  1.2323403467635103e+01  1.6022488437606906e+01  1.0680404213867886e+01  4.6644740212329416e-01  6.9181788233315805e-02  0.0000000000000000e+00  3.6008638200115524e+00  1.6743765239948420e+01  6.2253179413101500e-01  0.0000000000000000e+00  0.0000000000000000e+00  3.2307313805868851e+01  4.2920931680608263e+01  5.9293190019805602e+00  3.5054766720314610e+00  4.3674829678336744e+00  7.3511074748199929e+00  1.0144532704315754e+00  4.4837566412622998e+00  0.0000000000000000e+00  0.0000000000000000e+00  0.0000000000000000e+00  0.0000000000000000e+00  0.0000000000000000e+00  0.0000000000000000e+00  0.0000000000000000e+00  0.0000000000000000e+00  0.0000000000000000e+00  0.0000000000000000e+00  0.0000000000000000e+00  2.3723476561592638e+00  0.0000000000000000e+00  0.0000000000000000e+00  0.0000000000000000e+00  0.0000000000000000e+00  0.0000000000000000e+00  0.0000000000000000e+00  0.0000000000000000e+00  0.0000000000000000e+00  2.3683973614331688e+01  1.9209103024184515e+01  2.4051815753026503e+01  2.7033934648020814e+01  0.0000000000000000e+00  0.0000000000000000e+00  </DataArray> 
</PointData> 
</Piece>
</UnstructuredGrid>
</VTKFile>