<?xml version="1.0"?>
<VTKFile type="UnstructuredGrid"  version="0.1"  >
<UnstructuredGrid>
<Piece  NumberOfPoints="618" NumberOfCells="1080">
<Points>
<DataArray  type="Float64"  NumberOfComponents="3"  format="ascii">-4.25 4 0  -4.25 -4 0  4.25 -4 0  4.25 4 0  -1.25 1 0  -0.25 0 0  -1.25 -1 0  -3.25 -1 0  -3.25 1 0  1.25 1 0  3.25 1 0  3.25 -1 0  1.25 -1 0  0.25 0 0  0 -4 0  0 4 0  -4.25 0 0  4.25 0 0  -3.25 0 0  -4.25 2 0  -4.25 -2 0  3.25 0 0  4.25 -2 0  4.25 2 0  -4.25 1 0  -4.25 -1 0  4.25 -1 0  4.25 1 0  2.125 -4 0  -2.125 -4 0  -2.125 4 0  2.125 4 0  0 -2.239583333333333 0  -1.0625 2.682291666666667 0  1.0625 2.682291666666667 0  2.732954545454545 -2.517045454545455 0  -2.652986895301826 2.487057585738185 0  -2.25 -2.3359375 0  2.732954545454545 2.517045454545455 0  -2.220446049250313e-16 1.712275864293086 0  1.0625 -4 0  -1.0625 -4 0  1.367473250008284 -2.368504187683424 0  -3.1875 -4 0  -4.25 -3 0  -0.1296853207810323 -1.120314679218968 0  -1.104177184613194 -2.774001294888289 0  -4.25 3 0  -3.1875 4 0  3.1875 -4 0  1.0625 4 0  -1.0625 4 0  0 2.912786149538867 0  3.1875 4 0  2.25 1 0  2.25 -1 0  4.25 3 0  4.25 -3 0  -3.168025852734163 -2.914855593530048 0  1.835186788703338 1.967454154770984 0  0.6113906733843583 -3.071422739535278 0  -1.774938872060195 1.910101868609392 0  -2.25 -1 0  -2.25 1 0  -3.132312635730683 -1.954144290196067 0  1.981433392649784 -3.075046883716055 0  -0.8645017377304687 -1.861306024041929 0  0.6074134196061652 -1.602057299882968 0  -0.2739244448957433 -3.08151570898844 0  0.75 0.5 0  -0.75 0.5 0  -0.8937995122115957 1.811894385777969 0  0.884082324512012 1.810811355569967 0  -1.59375 3.341145833333333 0  1.59375 3.341145833333333 0  -3.529712121366897 2.5 0  -1.903284444846377 -3.146619224730244 0  -1.75 -1.66796875 0  2.111489472208695 -1.879492626314222 0  -3.08111685970403 3.186693221250952 0  3.364382300660234 1.885617699339766 0  3.573778515491998 -2.5 0  2.903954140703144 -1.728692745946152 0  2.390142767929403 3.242602068217662 0  -2.75 1.662634663474167 0  3.372533770890645 3.13214525657131 0  3.16728417474861 -3.195057010178064 0  2.589941262541426 1.742604416426647 0  -3.525246989223928 1.724753010776072 0  0.53125 3.456393074769434 0  -0.53125 3.456393074769434 0  -2.606862098331335 -3.419315967153206 0  0 0.75 0  -2.327381224256022 3.167117555031311 0  -3.71875 -4 0  -1.790317893771425 2.639041475970867 0  -3.71875 4 0  3.735226909179794 2.5 0  -0.434689127717023 2.352426619417106 0  -3.745009551939732 -2.5 0  -0.75 -0.5 0  0.75 -0.5 0  4.25 0.5 0  3.25 0.5 0  4.25 -1.5 0  4.25 -0.5 0  3.25 -0.5 0  -3.709049205194704 -1.540950794805296 0  -4.25 -0.5 0  -3.25 -0.5 0  -4.25 0.5 0  -3.25 0.5 0  0.3806308022205874 2.312531006915977 0  1.761206624332812 2.662514594411487 0  -0.5060765330222172 1.231137932146543 0  0.5605474365462708 1.181642309638812 0  0.6855656887778322 -2.284642742762343 0  1.289320980836618 -1.685918744804048 0  3.587635667913422 -1.811465512252732 0  1.295778297634739 -3.312807108751953 0  3.71875 -4 0  -2.484718261547373 -1.66796875 0  2.54129472188067 -3.461766406157935 0  -1.584553768394408 -2.312930421172607 0  4.25 1.5 0  3.71875 4 0  4.25 3.5 0  -0.5940223816001772 -2.420151638210574 0  -0.8562891081864143 -3.379282219009797 0  -3.453125 -3.452486112007326 0  2.127009732348907 -2.486032047514898 0  -1.59375 -4 0  -2.65625 4 0  -3.662931834238117 3.076901539353532 0  0 -0.5397694439488789 0  1.75 -1 0  -3.103880145098495 2.114816279251727 0  -2.581814706610864 -2.827102548810904 0  4.25 -3.5 0  1.413547583931744 1.561783389431753 0  0.03834544098927617 -1.667993000915835 0  -0.7130888383380199 -1.276615003457198 0  3.73611063751562 -3.25 0  -3.75 -0.75 0  3.738677428252632 -1.272645143494735 0  3.75 -0.25 0  3.75 0.75 0  -3.75 0.25 0  3.677509907171241 1.394980185657518 0  0.1729724216486316 -3.448324400630145 0  0.4600609565193352 -1.022739784851008 0  2.65625 4 0  2.914663145853574 3.483761529335237 0  -4.25 3.5 0  -0.5517444534416718 2.892011263841753 0  0.5540646533827686 2.90270658464378 0  1.59375 -4 0  -1.37424348188583 -3.238005613405709 0  1.069349366464763 3.4619158840928 0  -1.069349366464763 3.4619158840928 0  -2.65625 -4 0  -0.53125 4 0  0 3.444176594402671 0  0.53125 4 0  2.65625 -4 0  1.59375 4 0  -1.59375 4 0  -0.53125 -4 0  0.53125 -4 0  1.400538445557165 2.272658812911446 0  2.212546125072832 2.359086493404626 0  2.110641017341508 1.512903708520227 0  -1.298251865999914 2.185050803358182 0  -1.370486518271877 1.53694545102918 0  -2.324422829193396 2.0304747341473 0  -3.451296905381042 3.55188349935487 0  -2.252980012983497 1.517709623472462 0  0.8314572325841179 -3.538377529121299 0  0.1651118913394702 -2.758829960694034 0  1.084171046623539 -2.82186797480777 0  -2.775042824686969 -2.338900091740216 0  -1.75 1 0  -3.75 1.224753010776072 0  3.703810778903693 -0.7608738526024619 0  3.200031682171212 -2.148071444649835 0  -2.75 -1 0  -3 -1.453494282248404 0  1.859375 -3.567610582724346 0  3.231983999099127 2.384647152984348 0  1.75 1 0  -4.25 -1.5 0  -4.25 -3.5 0  -4.25 -2.5 0  -2.75 1 0  2.75 -1 0  4.25 -2.5 0  -1.75 -1 0  -4.25 1.5 0  -4.25 2.5 0  2.75 1 0  4.25 2.5 0  3.6875 0.25 0  -3.8125 -0.25 0  -3.664134562492216 -2.996182596888396 0  3.039340426132883 1.477403214811896 0  2.896872754762841 2.986670048367758 0  -3.258366227721622 -2.429444505580982 0  2.446349413314191 -1.481576162462785 0  -3.681188252694018 0.7373765053880361 0  2.476579304073827 -2.956835371296098 0  -0.02432413470993235 1.231137932146543 0  -3.768701313157564 -2.01891287359335 0  -0.3003833714327223 -3.569391618787892 0  3.738758154515608 3.489032101672833 0  1.765125328401306 -1.507819279873149 0  -1.154609827091184 -1.474228359417639 0  -0.3782899039068293 -1.927124175896865 0  -1.0987830704712 -2.2876005584161 0  1.571527962491337 -2.811213963622433 0  3.453125 -3.618650513056585 0  -2.695779283221825 3.503022462680263 0  -0.9506183469926481 1.349169849337732 0  2.886282976328413 2.08830543919736 0  -1.859375 -3.613519447919825 0  2.196091517674023 2.822001312269779 0  -0.4331066709684581 1.885839750017772 0  -1.346579666326327 -1.896006401923806 0  0.3615381915131272 -1.976755936558648 0  3.821488887375865 1.832107028539069 0  -1.582441118860814 -2.791510074823685 0  1.783747011907793 -2.191347248790469 0  2.446726602920125 -2.174382785541248 0  1.00313605033398 1.376565418154098 0  0.4310990218857933 1.859718924919822 0  0.8431524738950877 2.273194731823086 0  3.79439950055633 2.954070419523107 0  -0.7019885456454824 -2.962688853250264 0  -1.809937825166108 1.444957047974289 0  -2.13958155756883 -2.768196505281545 0  0.8612976984758075 -1.229081800223121 0  -0.8630334387412009 2.251005472564539 0  3.321417426962666 -1.446259249210685 0  -0.5073366151708427 -0.8776512943898103 0  -3.793259760009133 2.110845711006983 0  -3.090402298858048 2.557693208058808 0  -2.247717610706491 2.710997145391222 0  -2.027243184081608 3.535216752426951 0  0.9153369981443099 -1.912568471518071 0  -0.3532759984188575 -1.502839791357869 0  -3.034134083998229 -3.330264448685832 0  1.859375 3.670572916666667 0  -1.255299096542601 3.070440031839168 0  1.255299096542601 3.070440031839168 0  2.921875 -3.661875333337763 0  3.850809893598207 -2.832606356593649 0  3.846137648733236 -2.161074698689199 0  3.154627290018481 -2.570713902241912 0  -2.117359130773687 -1.914105354596305 0  -2.117359130773687 -1.421832145403695 0  -0.2166182667981147 -2.594339128300363 0  -3 1.331317331737083 0  3.326005959697935 3.596580658075049 0  -1.197601683043599 -3.610505460419974 0  -3.889856060683448 2.720667060374939 0  -2.815848022447855 2.868208719765569 0  2.488151170525763 1.340091272643286 0  -0.01984015345470717 2.479395784383366 0  -1.983953407139114 2.270324157287136 0  3.443486976475133 -2.890195582518409 0  2.882927457718616 -2.899093911813329 0  2.535755967375144 3.616888299617402 0  1.977826951734316 3.17776613581278 0  -2.31114086362501 -3.138309084472732 0  -3.845245875189892 3.44277358595823 0  -3.844124779023461 -3.600984140212427 0  -3.63273202255171 -1.140464045103419 0  0.4256685825438592 0.7770057476315775 0  0.5 0.25 0  -0.4335625501304853 0.800687650391456 0  -1 0.75 0  -0.5 0.25 0  -0.125 0.375 0  0.7090071616509334 -2.683739213204448 0  2.241826269333066 1.953254035682167 0  -2.716207311637434 2.053646240820244 0  -3.135046077565108 1.725860417408368 0  -3.387623494611964 1.362376505388036 0  -3.323698444114522 2.875705721499792 0  -2.260619496018966 -3.622268554717983 0  0.2892748300192267 1.456467626467612 0  0.2058019989618376 -1.317000847560413 0  -0.8031267956087405 3.183702750144165 0  -2.921875 -3.708398957437165 0  0.05605170236062412 2.097542063723369 0  -3.925108109555673 1.733251805097824 0  -1.52946203820045 -1.333984375 0  3.222157718558086 2.773457380998749 0  0.8030592928274842 3.190279693453577 0  0.796875 3.728196537384717 0  0.265625 3.728196537384717 0  0.2718753184275909 3.178481371970769 0  -0.2593746815724092 3.722088297201336 0  -0.2718753184275909 3.178481371970769 0  -0.796875 3.728196537384717 0  -3.067074060966304 3.627403604812928 0  -2.370495949438301 3.705693279192516 0  -1.912578893425812 3.051839540671347 0  2.821284620673293 -2.10126004722262 0  -1 -0.75 0  1.39351036923774 3.670572916666667 0  -1.328125 3.734295535563151 0  -0.5 -0.25 0  0.3812225659848426 -0.6372342251415175 0  3.869830251596885 -3.62829620482169 0  1.488385856740025 -3.637488873017461 0  2.80237578941782 -1.369543994449923 0  1 -0.75 0  3.963145395057808 -1.75 0  -2.745637781387773 -1.953344094870445 0  -1.419661583232925 2.547121360921379 0  2.542807541797504 2.207256908599424 0  1.660446255818958 -3.256910570780324 0  0.9521578486482744 -3.19615981162048 0  -3.955499806374016 -3.238655190931554 0  1.428767536584573 -1.333838401207307 0  3.984375 4 0  2.543564155860945 2.91675373813093 0  -2.654045025260287 -1.348554065372634 0  -1.851535534560853 -2.553403479553177 0  -2.576968950851106 1.331317331737083 0  3.930113675501616 2.185653591086291 0  3.539352899584
[...]
<PointData  Scalars="f_1090"> 
<DataArray  type="Float64"  Name="f_1090"  format="ascii">0.0000000000000000e+00  0.0000000000000000e+00  0.0000000000000000e+00  0.0000000000000000e+00  0.0000000000000000e+00  0.0000000000000000e+00  0.0000000000000000e+00  0.0000000000000000e+00  0.0000000000000000e+00  5.0847437139926093e+01  5.0847437139926093e+01  5.0847437139926093e+01  5.0847437139926093e+01  5.0847437139926093e+01  0.0000000000000000e+00  0.0000000000000000e+00  0.0000000000000000e+00  0.0000000000000000e+00  0.0000000000000000e+00  0.0000000000000000e+00  0.0000000000000000e+00  5.0847437139926093e+01  0.0000000000000000e+00  0.0000000000000000e+00  0.0000000000000000e+00  0.0000000000000000e+00  0.0000000000000000e+00  0.0000000000000000e+00  0.0000000000000000e+00  0.0000000000000000e+00  0.0000000000000000e+00  0.0000000000000000e+00  1.3375775871265393e+01  4.7466774398204308e+00  1.5048599148324630e+01  1.6278508216495034e+01  1.0534276323240690e+00  1.6386186345778411e+00  1.6285094479932347e+01  1.7284820238506921e+01  0.0000000000000000e+00  0.0000000000000000e+00  2.0489147292317117e+01  0.0000000000000000e+00  0.0000000000000000e+00  1.8344340269014129e+01  4.3529864616898131e+00  0.0000000000000000e+00  0.0000000000000000e+00  0.0000000000000000e+00  0.0000000000000000e+00  0.0000000000000000e+00  8.2169942779370189e+00  0.0000000000000000e+00  5.0847437139926093e+01  5.0847437139926093e+01  0.0000000000000000e+00  0.0000000000000000e+00  5.0497058203480072e-01  2.8473676476733786e+01  9.0683114822731543e+00  2.5591774243707683e+00  0.0000000000000000e+00  0.0000000000000000e+00  5.2889659474276551e-01  1.0929761547379796e+01  7.4036692050001429e+00  2.6688370581915173e+01  5.9835266908320772e+00  5.0847437139926093e+01  0.0000000000000000e+00  7.1786401698040638e+00  2.6539304272980516e+01  1.6708723553444966e+00  7.6400481062651764e+00  3.3888711642068364e-01  1.6171506194098999e+00  2.2270104323946374e+00  3.0073060296049089e+01  4.6055723780686036e-01  1.9242233641691968e+01  8.8534921962320592e+00  2.8999314581529088e+01  8.3007066538049212e+00  6.4921779943008517e-01  5.6806799170140039e+00  6.2960916042514503e+00  3.1235209582850072e+01  2.5567190356768288e-01  5.0848803709897963e+00  3.0601776246551937e+00  5.7793352380305751e-01  2.3123533576808452e+01  1.0479596511291831e+00  0.0000000000000000e+00  2.4857517732082521e+00  0.0000000000000000e+00  6.9520880763060955e+00  9.3366544889639460e+00  2.2856548329778972e-01  0.0000000000000000e+00  5.0847437139926093e+01  0.0000000000000000e+00  5.0847437139926093e+01  0.0000000000000000e+00  0.0000000000000000e+00  5.0847437139926093e+01  1.5007718899590569e-01  0.0000000000000000e+00  0.0000000000000000e+00  0.0000000000000000e+00  0.0000000000000000e+00  1.5721508677575324e+01  1.6672349484250113e+01  1.1182721464026613e+01  3.2460773282753749e+01  1.8235066777370790e+01  3.2357341844018748e+01  1.5834764643527043e+01  7.7605622444916253e+00  0.0000000000000000e+00  8.9863963212684017e-01  5.5387055220752526e+00  3.3081394659205521e+00  0.0000000000000000e+00  0.0000000000000000e+00  0.0000000000000000e+00  7.9835475811340944e+00  2.8230552029698739e+00  1.9835771694066193e-01  1.9143295928314373e+01  0.0000000000000000e+00  0.0000000000000000e+00  2.1885019174250209e-01  2.4002240278060295e+01  5.0847437139926093e+01  5.8775615521876767e-01  1.0329300809512145e+00  0.0000000000000000e+00  3.5828628433202475e+01  1.8039325501909296e+01  8.2261524273617770e+00  2.9776243301295908e+00  1.9597336656833358e-02  1.9581454854839095e+01  2.4986303867417277e+01  2.3691564004373578e+01  5.7623867634467281e-03  1.9530138089687014e+01  4.4552094105495117e+00  3.2761561967627351e+01  0.0000000000000000e+00  4.5504918048054011e+00  0.0000000000000000e+00  6.0183689332719474e+00  1.0592889201950930e+01  0.0000000000000000e+00  2.3212739367648680e+00  5.7969524332440630e+00  2.1094715360540990e+00  0.0000000000000000e+00  0.0000000000000000e+00  4.1818665386975686e+00  0.0000000000000000e+00  0.0000000000000000e+00  0.0000000000000000e+00  0.0000000000000000e+00  0.0000000000000000e+00  0.0000000000000000e+00  2.2058016169121416e+01  2.0969670730619395e+01  3.8099789160682619e+01  4.5140853668868335e+00  3.2982677135299459e+00  1.4363127264837288e+00  1.6781777328780412e-01  9.7972814297156796e-01  4.7237629918922428e+00  1.0220315467391831e+01  1.3363126515251800e+01  9.1132677951781227e-01  0.0000000000000000e+00  7.6292615751609213e-02  2.6075904487111792e+01  1.7461294252092170e+01  0.0000000000000000e+00  3.5297061743781849e-01  4.9402312220070232e+00  1.3901400106069469e+01  5.0847437139926093e+01  0.0000000000000000e+00  0.0000000000000000e+00  0.0000000000000000e+00  0.0000000000000000e+00  5.0847437139926093e+01  0.0000000000000000e+00  0.0000000000000000e+00  0.0000000000000000e+00  0.0000000000000000e+00  5.0847437139926093e+01  0.0000000000000000e+00  2.8205809439650881e+01  4.9453279172006620e-03  2.2679763496894143e-01  3.3598098354880548e+01  9.5293256147790775e+00  5.0968378447019724e-01  3.8147554459497577e+01  2.2499705857058596e-02  1.1526392509919562e+01  2.0009615596425736e+01  1.9801862854988855e-01  2.7839568469896214e+00  1.8950393218453210e+00  3.8128729892528355e+01  4.4701779259396490e+00  1.1675640621026513e+01  5.4543221970654452e+00  1.4430427116050511e+01  2.2385300573247919e+00  4.5665867477075689e-01  5.6862133711071561e+00  2.1976217698868879e+01  8.0982795898277582e-01  1.3985549700344782e+01  1.1309424931111424e+01  4.2331793375961171e+00  1.9054432885102468e+01  1.0402832085085388e+01  2.8284918290123118e+00  2.4243619398927869e+01  2.3359592938690827e+01  3.6193581055988673e+01  2.1137057946076784e+01  1.9379161465066666e+01  3.8870712810903627e+00  5.1158560795811958e+00  1.5258283636643108e+00  1.6768058474289365e+00  3.7107412808030375e+01  6.8682389175046650e+00  2.9536505013651968e+01  9.7921369703938304e+00  1.9357778669557213e-01  6.2475355669376964e-01  1.5341771078328852e+00  8.2972153527520243e-01  2.5251282796214188e+01  1.3446226793754569e+01  4.1391327133670636e-01  3.7552290946517446e+00  3.0270888930364483e+00  1.0607838307932226e+01  2.9311617905555778e+00  3.9566452609648985e+00  7.3741230847001464e+00  1.2571966498617870e+01  1.7153997314088030e+00  9.8480147079398994e-01  9.3654476485656328e+00  2.6293600772567954e-01  2.6714279216321719e+00  1.3941721182449913e+00  1.5316349801732729e-01  7.7954596192747450e-01  4.1528652805538940e+01  1.1394107287669460e+01  2.1878087512861115e+00  7.0495343170748717e+00  1.0595523675478510e+01  3.9392296125307560e+00  9.6232503613394318e+00  1.1014051535835119e+00  9.3377663376256498e-02  6.9489288804121946e-02  7.7312384355488484e-02  3.5555630385072263e+01  5.0847437139926093e+01  1.0866573968103301e+01  0.0000000000000000e+00  0.0000000000000000e+00  1.8633259435555193e+01  1.3623003995484201e+01  2.8345095756719015e+01  9.1550507598509356e-01  4.3675970963043176e-01  1.7809779655015331e-01  4.1781592380884175e-01  5.6140856762330149e-01  2.3777669584296302e+01  2.3843389906586562e+01  3.7982129297439768e+00  2.1640909448447210e-01  1.4964235211341533e+01  1.0665332463540296e-01  1.7944034826446622e+00  9.7821989365351740e+00  8.3275139090616133e+00  2.7355758393935901e+00  2.2938716330209847e+00  7.0106251266115676e+00  1.8351372952504872e+00  5.3631355826346461e+00  1.2998172646199999e+00  2.2775055950465586e-01  3.8409175418116104e-01  1.7439351142212869e+00  2.2330976970256906e+01  0.0000000000000000e+00  3.7102340932219398e+00  8.6451334083656650e-01  0.0000000000000000e+00  3.6973558752057599e+01  1.0720765541822392e+00  4.1074323207000969e+00  3.9358313539381129e+01  5.0847437139926093e+01  7.5581263118280413e+00  8.4081013263203885e-01  3.6846990384534628e+00  2.2308985526761706e+01  8.6659948894500918e+00  8.5840470334054686e+00  8.9151153077291503e-02  4.1350503011405451e+01  0.0000000000000000e+00  1.1848610845647581e+01  4.1277032447279927e-01  2.3912331402276772e+00  4.4520142134851570e-01  5.7446170913715013e+00  1.2192516709722128e+01  2.0334838289278875e-01  5.3606925358477796e-02  1.1750593483951398e+01  5.0847437139926093e+01  6.6527235285627677e+00  2.8596996871974959e+01  1.1974472260045273e-01  2.9992110308405606e-01  8.4045664358417982e-02  2.8159543680551089e+01  1.5049341926151201e+00  5.0847437139926093e+01  3.3908944937751386e+01  2.6739138054682929e+01  1.4319515224469495e+01  2.5887198390184611e+01  4.2251074793972414e+01  1.7928241454655063e+00  1.5039430733396678e+01  1.1968498078198737e+01  2.2038030984398059e+01  4.1136177224925817e+01  1.3791567145632124e+01  7.0980793193895142e-01  3.6847401081760450e-01  9.3427683639363988e+00  2.4272672767533759e+01  3.0092014005119360e+01  1.4648655250240637e+01  2.3299858737198433e+00  3.1520227405404695e+00  3.9307123478295600e+00  7.0468172886561113e+00  5.6177595586524864e+00  3.7006574956267851e-01  0.0000000000000000e+00  2.2749601578480945e+01  2.6026560799748779e+00  2.1012817750483091e+01  3.1798010519006297e+01  1.5367725396102676e+00  3.0716629752534690e+01  5.1593330139150746e+00  1.0954729279895142e-01  7.1524784799643042e+00  8.5360040255391212e+00  6.8301437514183150e-01  4.5756073738258927e+00  8.3687434613786760e+00  2.9710911575321055e+00  4.0444452826070183e+00  5.5806833084574752e+00  3.6003021839563991e+00  9.0267058536252975e-01  9.3724108160611497e+00  8.2022191789197840e-01  0.0000000000000000e+00  1.4489607252819943e+00  1.9094324391722722e+01  3.3367792088089404e-01  4.1273842965815142e+00  3.4086501401789078e+00  3.7698645768403516e+00  2.8961492393817441e+01  2.6648681106467884e+00  1.2587118137953585e+01  6.5966532274830780e-01  1.5447272014180623e+01  2.5723159298729076e+01  0.0000000000000000e+00  2.6692676098737707e+01  5.0847437139926093e+01  2.5570942190304805e+01  1.2850976363581739e+00  5.0847437139926093e+01  1.1061543761789437e+01  4.2203691985098587e+01  2.9395398229809359e-02  0.0000000000000000e+00  1.0102126119300816e+01  7.4220380712299932e+00  5.9384442397101065e+00  1.0684779845411454e+01  1.6731070897213087e+00  1.6574613133532807e+01  1.3515923520327183e-01  9.1525428372849580e-03  0.0000000000000000e+00  8.3412158999180593e-03  0.0000000000000000e+00  1.6276163752330696e+01  0.0000000000000000e+00  1.2935769325309803e+01  3.7385076749328846e-03  1.5450552099898398e+00  1.3587634384560584e+01  1.5984961589512743e+01  6.9485063637761231e+00  9.2027050494013416e+00  3.4788496569182853e-01  1.5879907936243284e-01  8.3989673523068353e-02  2.4204562790308739e+01  0.0000000000000000e+00  1.3229731188080137e+01  4.1088783559446092e+01  3.9328889928672623e+00  1.2630233879918928e+01  7.2682418977401868e+00  4.7212470542198606e+00  7.1796022480479813e+00  9.1723633787834991e-02  2.9260954493533841e+01  1.6687425399173883e+01  1.4068467253265048e+01  1.0253497207627227e+00  3.5819605089734701e+01  1.3940807538793910e+01  0.0000000000000000e+00  1.3120064900737767e+00  1.5551564464038929e+01  1.3741142582112420e+00  3.1874665513450218e-01  3.4741970322609440e+01  3.3316019970922794e+00  3.6955438760991449e-01  1.0801873512713900e+00  2.8229384847577321e-01  3.9758975390651614e+01  2.9964151524417009e+01  4.1643748863964731e+01  8.1014920973270210e-01  2.1200157090417822e+00  1.9735786770352192e+01  3.1513326287935961e-01  4.0380679240840308e+01  1.6568382551732416e+01  2.1354262417534784e+00  4.9490721651121028e+00  6.4759440963007560e+00  4.0813570931479113e+01  6.1583712953362801e-01  1.7049140039991883e+01  3.0156389945194543e-02  2.2352223502805990e+00  0.0000000000000000e+00  3.6910295847405510e-02  1.8230936070967026e+01  2.1893306984408149e+01  1.6242845129577887e+01  1.0919851431325714e+01  3.3131172231264183e+00  0.0000000000000000e+00  1.3019417084323315e+00  4.0667365100187087e+00  0.0000000000000000e+00  6.6344458052220875e-02  0.0000000000000000e+00  1.1325666752262698e+01  5.0847437139926093e+01  0.0000000000000000e+00  0.0000000000000000e+00  2.6304350305467379e+00  3.6282983354043253e+01  7.2376388782015288e-01  0.0000000000000000e+00  4.8665731954030740e+00  9.0367849394616648e+00  1.3258468947816375e+01  0.0000000000000000e+00  0.0000000000000000e+00  1.0027589648917068e+00  1.8961927442311082e+00  0.0000000000000000e+00  6.2505158122059368e-01  8.8436815572336744e+00  1.5362462041198683e+01  3.2523918073545502e+01  8.8281694373953545e+00  3.6374213932499359e+01  5.0847437139926093e+01  5.0847437139926093e+01  1.2917631804836311e+01  8.5987936921760634e-03  9.2086867843213811e-03  2.4475445813696820e-02  3.3156566735867538e-03  3.5239152561603866e+01  5.0847437139926093e+01  3.4846891038443495e+01  3.4533772218472450e+01  3.6822384939915746e-03  1.2245837263209612e+01  2.5876288364540998e+00  1.9907235465717776e+00  2.0772724967137859e+00  2.1523214983677299e+01  1.9758629761617794e+01  1.1599045664694523e+00  0.0000000000000000e+00  2.5632627361374176e+01  9.7883283281965259e+00  0.0000000000000000e+00  0.0000000000000000e+00  1.2052810462423707e+01  4.2392006797898411e+01  1.3554349229832699e+01  2.4218144329791964e+00  5.3617512228827229e+00  5.2826937593489909e+00  2.5670483992918820e+00  4.8573781233791538e+00  1.2308315150866608e+01  3.4976889163117315e+00  1.5426038476601805e-01  6.8751836957292881e-02  1.2713988366184099e+00  8.5964249876199239e-01  2.0782633618238541e-01  1.7290510913329013e-01  8.1919523639370357e+00  8.9698358235641891e+00  1.1839303633632198e+01  2.4773589250302077e+00  1.8263179751446071e+01  4.6444219111324969e-01  7.6100215849849928e-01  0.0000000000000000e+00  2.8976861121609301e+00  6.6776074316020173e+00  2.5596828624155217e+00  1.7072734274991612e+00  5.4853963964203345e+00  3.1897862566146462e+00  3.5823073050213175e+01  1.5227676294136150e+00  3.2160849096860571e+00  4.1251012118768926e-01  4.8070846257271898e+00  2.5039402698746994e+01  6.6629471688040081e+00  1.2836878612119898e+01  1.6690092122507203e+01  1.1125421056112385e+01  4.8588271054509791e-01  7.2064362743037264e-02  0.0000000000000000e+00  3.7508998125120341e+00  1.7441422124946261e+01  6.4847061888647362e-01  0.0000000000000000e+00  0.0000000000000000e+00  3.3653451881113391e+01  4.4709303833966935e+01  6.1763739603964192e+00  3.6515382000327734e+00  4.5494614248267444e+00  7.6574036196041613e+00  1.0567221566995573e+00  4.6705798346482297e+00  0.0000000000000000e+00  0.0000000000000000e+00  0.0000000000000000e+00  0.0000000000000000e+00  0.0000000000000000e+00  0.0000000000000000e+00  0.0000000000000000e+00  0.0000000000000000e+00  0.0000000000000000e+00  0.0000000000000000e+00  0.0000000000000000e+00  2.4711954751659007e+00  0.0000000000000000e+00  0.0000000000000000e+00  0.0000000000000000e+00  0.0000000000000000e+00  0.0000000000000000e+00  0.0000000000000000e+00  0.0000000000000000e+00  0.0000000000000000e+00  2.4670805848262177e+01  2.0009482316858879e+01  2.5053974742735939e+01  2.8160348591688347e+01  0.0000000000000000e+00  0.0000000000000000e+00  </DataArray> 
</PointData> 
</Piece>
</UnstructuredGrid>
</VTKFile>