<?xml version="1.0"?>
<VTKFile type="UnstructuredGrid"  version="0.1"  >
<UnstructuredGrid>
<Piece  NumberOfPoints="749" NumberOfCells="1107">
<Points>
<DataArray  type="Float64"  NumberOfComponents="3"  format="ascii">-170 60 0  -170 -60 0  20 -60 0  20 60 0  -14.3026565719113 1.513488903698005 0  -14.20046999261368 -0.6232782607549477 0  -14.55071412053536 -2.733554515751373 0  -15.36437778486522 -4.695305247715011 0  -16.56615824661801 -6.456693218045593 0  -17.98276929974736 -8.053142412382043 0  -19.493636443191 -9.546649474701743 0  -21.02570499062718 -11.01654820044476 0  -22.53327638468728 -12.51372535634896 0  -24.02795002192596 -14.02526432424557 0  -25.52666518156068 -15.53230247837401 0  -27.0307596780255 -17.03335100589696 0  -28.53520211138758 -18.53401377022711 0  -30.03785820490929 -20.03666576281602 0  -31.53991084804447 -21.53998498415292 0  -33.0423798553789 -23.04283572038149 0  -34.5451856884173 -24.54532204134346 0  -36.04803651370634 -26.04778255628616 0  -37.55071961844055 -27.55041586449263 0  -39.05307547797044 -29.0533323054015 0  -40.55535226606307 -30.55630686382835 0  -42.05845095644282 -32.05857850277533 0  -43.5626818962246 -33.55988901369439 0  -45.06528047574938 -35.06258962851967 0  -46.56310215794031 -36.56935304921535 0  -48.06205274382746 -38.07515568661145 0  -49.57565821172386 -39.5684725179224 0  -51.12375723314955 -41.02728059338527 0  -52.74011929862228 -42.40595179034366 0  -54.4520664704633 -43.66465011132171 0  -56.24789248404262 -44.80579868146229 0  -58.10579905349735 -45.84270613081479 0  -60.01651913108749 -46.77469067046137 0  -61.97792700676667 -47.59315685637969 0  -63.98515017755007 -48.29418951397857 0  -66.0302143940289 -48.87908269046375 0  -68.10544001547937 -49.34553056312048 0  -70.20409509367046 -49.6831337914187 0  -72.31935359874178 -49.88786602060492 0  -74.44348557572148 -49.98703806623825 0  -76.56909861059263 -50.01606810390541 0  -78.69402545940633 -50.00858500532066 0  -80.81886979591964 -49.99687100800882 0  -82.94393386610892 -49.99642409585368 0  -85.06907822027438 -50.00009380626235 0  -87.19417185111054 -50.00116259327506 0  -89.31922782889028 -50.00030073660359 0  -91.44428886032078 -49.99969815030661 0  -93.56936398871945 -49.99981832513534 0  -95.6944413706214 -50.00005358576121 0  -97.81951452384007 -50.00007185682392 0  -99.94458592419272 -50.00000149441636 0  -102.069658209466 -49.99997816180458 0  -104.194731304965 -49.99999370083434 0  -106.3198044336814 -50.00000372078173 0  -108.4448772450308 -50.00000030024908 0  -110.5699497020978 -50.00000191798893 0  -112.6950220932653 -50.00001157686402 0  -114.8200952950047 -50.00000257342016 0  -116.9451696507919 -49.9999616527645 0  -119.0702424247241 -49.9999615531051 0  -121.1953104150312 -50.00008867412324 0  -123.3203795701227 -50.00018525817478 0  -125.4454635098379 -49.99988883888155 0  -127.5705570043458 -49.99933824877908 0  -129.695613348064 -49.99977539792358 0  -131.8206062593783 -50.00189916883055 0  -133.9456692649192 -50.00215923331786 0  -136.0709772218961 -49.99590629766254 0  -138.1962615849796 -49.9902806902644 0  -140.3208167482046 -50.00404373700935 0  -142.4447840375364 -50.03343773388879 0  -144.5705236168971 -50.01570840604256 0  -146.6965879289826 -49.87540785514804 0  -148.7906171642585 -49.51200465790254 0  -150.8074912443083 -48.83691702048925 0  -152.707352041816 -47.86779248809069 0  -154.4522301804354 -46.64571561047546 0  -156.0052685469901 -45.19202973719487 0  -157.3360273284435 -43.53078834366793 0  -158.4251229684726 -41.69751611190727 0  -159.241308252738 -39.72966077063658 0  -159.7428465665914 -37.66577595302132 0  -159.9718203009386 -35.54871502844379 0  -160.0354959521082 -33.42139177237213 0  -160.0188094708682 -31.29694655825162 0  -159.9930492105076 -29.1728426056855 0  -159.9921379123968 -27.04780409332509 0  -160.0002316964629 -24.92242690265127 0  -160.0025623816266 -22.79726645913972 0  -160.0006542988818 -20.6722654355422 0  -159.999332745165 -18.54724235638623 0  -159.9996015779103 -16.42215946141263 0  -160.0001193470567 -14.29706719205032 0  -160.0001583599471 -12.17199292454172 0  -160.0000028009603 -10.0469260070121 0  -159.9999509036338 -7.921855233153002 0  -159.9999854619545 -5.796781138415941 0  -160.0000105184072 -3.67170721530369 0  -160.0000048521687 -1.546634522449885 0  -160.0000008690094 0.5784376353267195 0  -160.0000098593286 2.703509992725002 0  -160.0000023475675 4.828583285930041 0  -159.9999620317094 6.953657679463278 0  -159.9999619566438 9.078730421687954 0  -160.0000892306331 11.20379836877198 0  -160.0001850049811 13.3288675501561 0  -159.9998865260874 15.45395159910049 0  -159.9993371349948 17.5790450899264 0  -159.9997809833485 19.70410114671155 0  -160.0019073622424 21.82909380444554 0  -160.0021496283055 23.95415746234868 0  -159.9958706757143 26.07946685382962 0  -159.9902842491939 28.20475014850998 0  -160.0041595340044 30.32930008387827 0  -160.0335089709381 32.45326692022684 0  -160.0154467264286 34.57902033062985 0  -159.8744736550689 36.70505244988288 0  -159.5099559387818 38.79885584605635 0  -158.8336024807092 40.81531335732308 0  -157.8633941155653 42.71466512756862 0  -156.6403446905067 44.45893538333848 0  -155.1857992212012 46.01093951695438 0  -153.5238319559281 47.34052208277631 0  -151.6898121835654 48.42957675935007 0  -149.7214235367227 49.24510120382028 0  -147.6578404958287 49.74102371642016 0  -145.5406501366085 49.96919463823971 0  -143.4106238792 50.05195338169402 0  -141.2850892878207 50.04298655404259 0  -139.168823710313 49.96081905745146 0  -137.0532872998174 49.89150792855948 0  -134.9124754233308 50.01079272375608 0  -132.7437781549752 50.32674705093199 0  -130.6317234993259 50.23156730476054 0  -128.6746711129475 49.07284155248932 0  -126.9121201501756 47.18731039290874 0  -125.3476694785829 45.51501983659241 0  -123.9844061981432 45.00461417094534 0  -122.7824813583385 46.22776647009426 0  -121.5365461506658 48.30308923209382 0  -120.0013815308302 49.9991410728152 0  -118.0204487134058 50.43365264640787 0  -115.7927654377358 50.12433243816258 0  -113.5900067893526 49.89014605151528 0  -111.4779128399479 49.92926985118537 0  -109.3823883888561 50.01834794787394 0  -107.2603029163498 50.0273599567082 0  -105.1265890777277 50.00130390829935 0  -102.9982945507467 49.99156400404279 0  -100.8750705148854 49.99713877040276 0  -98.75161250495118 50.00209398092429 0  -96.62635376539743 50.00159460039011 0  -94.50069544810071 49.99962124057065 0  -92.37554288840523 49.99901642606711 0  -90.25063142802721 49.99982507096915 0  -88.12561714507483 50.00143745476601 0  -86.00051072331082 50.0014340124638 0  -83.87544175899966 49.99713876184114 0  -81.75040230212625 49.99363291225986 0  -79.62525732334913 50.00313213387209 0  -77.50001825268649 50.02216008016664 0  -75.37505731459102 50.00916763088097 0  -73.25133576704407 49.92036174237631 0  -71.13349347176484 49.73465708576577 0  -69.02777187555461 49.44073448827585 0  -66.94135243190519 49.03114959542528 0  -64.88216354142111 48.50160388137945 0  -62.85784039032547 47.8507797714693 0  -60.8755443583749 47.08171307241495 0  -58.94187205852818 46.19808744057401 0  -57.06188544479514 45.2044282348106 0  -55.24123982498673 44.10459417720163 0  -53.49079975516923 42.89754837089113 0  -51.82200494967118 41.58184503811722 0  -50.22824412715346 40.17476171133248 0  -48.69000292872847 38.70683870444427 0  -47.18607726118066 37.20541095262912 0  -45.69338206268058 35.69316463462943 0  -44.1938165643905 34.1875366326297 0  -42.68889828966147 32.68706508188144 0  -41.18450764040726 31.18608525751649 0  -39.68211646978249 29.68317928992499 0  -38.18012696525681 28.17988638824746 0  -36.67755907709394 26.67715065667851 0  -35.1747169670624 25.17467908927073 0  -33.67198210819226 23.67210420438057 0  -32.16936566804421 22.16941524404289 0  -30.66675143077029 20.66672416162647 0  -29.16409637317259 19.16407240235611 0  -27.66142947240278 17.66143205188273 0  -26.15877306110278 16.15878159666457 0  -24.65612314805776 14.65612488152964 0  -23.15347202759557 13.15346932952711 0  -21.65081819665848 11.65081638858667 0  -20.14816331533488 10.14816445950747 0  -18.64550906895701 8.645511918770588 0  -17.14285714285715 7.142857142857144 0  -17.14285714285715 7.142857142857142 0  -15.79318776871378 5.481971868719 0  -14.84000427416196 3.577072284094356 0  -170 0 0  20 0 0  -75 -60 0  -75 60 0  -170 30 0  -170 -30 0  -27.5 -60 0  -122.5 -60 0  -122.5 60 0  -27.5 60 0  -170 45 0  -170 15 0  -170 -45 0  -170 -15 0  -51.25 -60 0  -146.25 -60 0  -98.75 -60 0  -146.25 60 0  -98.75 60 0  -51.25 60 0  -63.125 -60 0  -134.375 -60 0  -86.875 -60 0  -110.625 -60 0  -134.375 60 0  -86.875 60 0  -110.625 60 0  -63.125 60 0  20 30 0  20 -30 0  -3.75 60 0  -3.75 -60 0  -6.868436962022148 33.94638046094374 0  -6.220004470773809 -33.64353812730407 0  3.968289699580879 14.917284880285 0  3.933623862643845 -14.51772670539594 0  20 45 0  20 -45 0  -25.11796395961189 -41.48089012292348 0  -24.40175742054158 41.25770377429031 0  -39.375 60 0  -39.375 -60 0  20 -15 0  20 15 0  0.823034511849996 0.2034628652824413 0  3.935521584294825 45.86665917513348 0  7.679046101171625 -37.5 0  -15.625 -60 0  8.125 -60 0  -9.6875 -47.26246518434154 0  -15.625 60 0  -10.59867622039639 -20.35120808740723 0  -11.80570998616347 46.78531444049869 0  -9.532778880961928 19.82887783723925 0  6.088698041595446 28.72502714411208 0  -19.23460954999233 28.97003379643336 0  -18.65124098435859 -30.37119250958492 0  -37.58278207491868 -46.63226581940635 0  -38.83125662812655 47.07805919268114 0  -158.125 -60 0  -158.125 60 0  8.125 60 0  8.827624377684542 -25.51648366741124 0  9.290886302751289 -48.7224724896781 0  -5.540778793249599 9.421196001308312 0  10.47233402906101 5.833888786814805 0  10.35237907113022 -5.472214099223109 0  -6.139944697490169 -10.44065946260223 0  12.29854720139887 37.5 0  -19.65055296717532 -50.37089419320903 0  -21.5625 51.35428390525077 0  -0.9809429600859572 -23.29270380238115 0  0.084387
[...]
<PointData  Vectors="f_39"> 
<DataArray  type="Float64"  Name="f_39"  NumberOfComponents="3" format="ascii">3.2510314199274763e-08 2.4073525478503364e-07 0.0000000000000000e+00  2.5771554825977741e-05 2.5679919008871660e-05 0.0000000000000000e+00  -1.8006482973937785e-01 -1.6667908671922556e-04 0.0000000000000000e+00  -1.7855645131334671e-01 4.1577403837462270e-04 0.0000000000000000e+00  -4.3647625489787634e-01 -5.9634927245145394e-02 0.0000000000000000e+00  -4.3453888318084150e-01 5.5966924328570283e-03 0.0000000000000000e+00  -4.0740064179257152e-01 1.3812757730265485e-01 0.0000000000000000e+00  -3.8508954757314251e-01 1.9986902909836007e-01 0.0000000000000000e+00  -2.3106970897108661e-01 2.0371170919252182e-01 0.0000000000000000e+00  -2.2606768959308751e-01 2.6471858537928239e-01 0.0000000000000000e+00  -2.0920693077528404e-01 1.8810333721356681e-01 0.0000000000000000e+00  -1.6565545279944965e-01 2.0356427011874639e-01 0.0000000000000000e+00  -1.7079162564839259e-01 1.6033943208587290e-01 0.0000000000000000e+00  -1.6313807733079055e-01 1.5498314712445443e-01 0.0000000000000000e+00  -1.2698641666261021e-01 1.4016580771471099e-01 0.0000000000000000e+00  -1.3666720414324868e-01 1.5116490819673822e-01 0.0000000000000000e+00  -1.3132158018059048e-01 1.2371658690811825e-01 0.0000000000000000e+00  -1.2413140048027232e-01 1.2161179439538940e-01 0.0000000000000000e+00  -1.0536886945061559e-01 1.1077691086996849e-01 0.0000000000000000e+00  -1.1088716729196786e-01 1.1753757849961091e-01 0.0000000000000000e+00  -1.0732825761570697e-01 1.0155656163081594e-01 0.0000000000000000e+00  -9.0091161508972298e-02 9.6334271490036788e-02 0.0000000000000000e+00  -9.5210748599659653e-02 1.0127807135569185e-01 0.0000000000000000e+00  -9.2079674120814858e-02 8.6591906088540296e-02 0.0000000000000000e+00  -8.4769161877961255e-02 9.4772875921071767e-02 0.0000000000000000e+00  -8.2592069402308552e-02 7.5474338041365316e-02 0.0000000000000000e+00  -7.1865904106950887e-02 8.4905646567430035e-02 0.0000000000000000e+00  -7.6550126521289522e-02 6.6890803810013999e-02 0.0000000000000000e+00  -5.8458162394290795e-02 6.9109685665286399e-02 0.0000000000000000e+00  -6.7181193807860862e-02 6.2017563363047652e-02 0.0000000000000000e+00  -5.1838563070948786e-02 5.8309565560129714e-02 0.0000000000000000e+00  -5.2741269853160404e-02 6.8081809108718513e-02 0.0000000000000000e+00  -4.8977748931674427e-02 5.0684157462584783e-02 0.0000000000000000e+00  -2.7403963927288902e-02 4.7995425399579530e-02 0.0000000000000000e+00  -2.6325090807482809e-02 5.8015899811335113e-02 0.0000000000000000e+00  -2.7277672319853757e-02 3.5316357288448987e-02 0.0000000000000000e+00  -7.4408715713137801e-03 4.2467523047564536e-02 0.0000000000000000e+00  -1.6152090726801373e-02 2.3902531721025654e-02 0.0000000000000000e+00  -5.8089599421195365e-04 1.6653311110799408e-02 0.0000000000000000e+00  -7.1581263253684630e-03 1.5629188002419105e-02 0.0000000000000000e+00  6.9353641757782033e-04 9.2411578757662857e-03 0.0000000000000000e+00  8.1525488918572208e-04 1.2720323091033083e-02 0.0000000000000000e+00  -2.1824007564980345e-03 5.9931796708885465e-03 0.0000000000000000e+00  8.1494804466034217e-04 2.6035124990935006e-03 0.0000000000000000e+00  5.4182722066109968e-04 3.8850005347881552e-03 0.0000000000000000e+00  -6.2398667923508385e-04 2.0681561303580111e-03 0.0000000000000000e+00  3.1940879041397665e-04 8.4559025340340157e-04 0.0000000000000000e+00  1.6725160683000821e-04 1.3112417627170251e-03 0.0000000000000000e+00  -2.0395880259057759e-04 6.7791373568060513e-04 0.0000000000000000e+00  2.4241072902374372e-04 7.4906044362268174e-04 0.0000000000000000e+00  -9.1234501629983876e-05 3.8824223055382767e-04 0.0000000000000000e+00  5.4930541373176924e-05 2.0712361484510406e-04 0.0000000000000000e+00  4.0020529874298125e-05 2.8729940111153312e-04 0.0000000000000000e+00  -4.6871950993133762e-05 1.4780606138775821e-04 0.0000000000000000e+00  2.1560144383459622e-05 7.4707411636916598e-05 0.0000000000000000e+00  8.7977210875380747e-06 1.0318560567338205e-04 0.0000000000000000e+00  -8.5770905988996333e-06 6.2363267549223891e-05 0.0000000000000000e+00  5.5113168839409448e-06 5.7592914439197703e-05 0.0000000000000000e+00  -1.0670954503699165e-05 5.6942976554494087e-05 0.0000000000000000e+00  9.2788416586882635e-06 2.7353530812211013e-05 0.0000000000000000e+00  7.0910387347968781e-06 3.9851708350220733e-05 0.0000000000000000e+00  -4.1083110205881101e-06 1.9448395036299490e-05 0.0000000000000000e+00  3.2874349443120053e-07 2.0047918635739980e-05 0.0000000000000000e+00  -1.5854788652589416e-06 1.9834184689638088e-05 0.0000000000000000e+00  1.6340478286723726e-06 2.0088719892061651e-05 0.0000000000000000e+00  -4.3496870310872742e-07 3.0317999908976630e-05 0.0000000000000000e+00  -1.9266087002747547e-06 2.7299191778118892e-05 0.0000000000000000e+00  6.1293057245092946e-06 2.9150974302638768e-05 0.0000000000000000e+00  -1.5348998907903954e-06 4.3812752465312146e-05 0.0000000000000000e+00  9.2102574096659645e-07 4.2666543003260724e-05 0.0000000000000000e+00  -1.4168502341939661e-06 3.2572807552681870e-05 0.0000000000000000e+00  8.0523969149858098e-07 4.1792584479096275e-05 0.0000000000000000e+00  -7.4555079575340128e-06 3.7910625093277556e-05 0.0000000000000000e+00  5.5534383583218857e-06 1.8148725927241451e-05 0.0000000000000000e+00  3.4591497485065194e-06 2.5677283813123930e-05 0.0000000000000000e+00  -2.5929546768637181e-06 1.5394822155868547e-05 0.0000000000000000e+00  -6.2504764664790936e-07 1.3957078337040881e-05 0.0000000000000000e+00  2.1029048295821643e-06 1.4421983581502455e-05 0.0000000000000000e+00  -1.3062932490232623e-06 1.4302151657325620e-05 0.0000000000000000e+00  2.2694785137890958e-06 -3.8830958572072993e-06 0.0000000000000000e+00  2.8709147000440646e-06 4.1092040528380836e-07 0.0000000000000000e+00  -7.2820770456814901e-07 -1.4423467814091782e-07 0.0000000000000000e+00  -1.7529857686193075e-06 -7.1509054936866004e-07 0.0000000000000000e+00  4.3291787623198657e-06 6.1304114681656257e-06 0.0000000000000000e+00  8.7926677789612133e-07 -6.4294036076464054e-06 0.0000000000000000e+00  -6.7358938726842052e-06 2.2607485899948738e-06 0.0000000000000000e+00  -1.3704098105375392e-05 -4.2242758670040092e-06 0.0000000000000000e+00  -1.3310221449368708e-05 1.5262973155942554e-08 0.0000000000000000e+00  -8.1919447327538122e-06 -2.0758697072154024e-06 0.0000000000000000e+00  -7.0847857954681430e-06 -9.9536452063338866e-07 0.0000000000000000e+00  -5.3228367842558155e-06 -2.4406595205284053e-06 0.0000000000000000e+00  -1.3356324796755254e-05 2.0527127719250859e-06 0.0000000000000000e+00  -1.4041607381304040e-05 -1.3597548257142404e-06 0.0000000000000000e+00  -1.1985858430337208e-05 -8.8093765623752701e-07 0.0000000000000000e+00  -1.9512760803662595e-05 8.6669728201013929e-07 0.0000000000000000e+00  -2.1327647333009635e-05 2.0665670140343210e-07 0.0000000000000000e+00  -1.7101112943053846e-05 1.9267752232040735e-06 0.0000000000000000e+00  -1.9203456399039722e-05 1.5900638514083248e-06 0.0000000000000000e+00  -1.5026244758186764e-05 1.2238633348852212e-06 0.0000000000000000e+00  -1.8046943373122858e-05 -1.0366434540334007e-06 0.0000000000000000e+00  -1.9191770754935884e-05 2.6714995236596183e-06 0.0000000000000000e+00  -1.1591947591342154e-05 -9.9060092243983309e-06 0.0000000000000000e+00  -1.1566721556069040e-05 6.7364256298650105e-06 0.0000000000000000e+00  -1.4361206628461740e-05 -2.2906394638129702e-06 0.0000000000000000e+00  -1.3964903292791472e-05 1.5486604704821954e-06 0.0000000000000000e+00  -1.2755570408973880e-05 -4.7817927036408431e-06 0.0000000000000000e+00  -1.1819027154568917e-05 4.1972421129126286e-06 0.0000000000000000e+00  -1.6385104635288833e-05 -1.2550330718216430e-06 0.0000000000000000e+00  -1.5386778218239245e-05 -1.3754544720008944e-07 0.0000000000000000e+00  -1.4813330779687534e-05 8.4028337987015460e-07 0.0000000000000000e+00  -1.7070353840197103e-05 -3.6376488261169199e-07 0.0000000000000000e+00  -1.7723891441950140e-05 1.3571263746773867e-06 0.0000000000000000e+00  -1.2851553296131509e-05 -4.3042293346953786e-06 0.0000000000000000e+00  -1.0656671083583017e-05 1.7557078783833576e-06 0.0000000000000000e+00  -9.5441820662151777e-06 1.9943233408623034e-07 0.0000000000000000e+00  -1.1218971319129456e-05 2.0983192607710489e-06 0.0000000000000000e+00  -5.6548856035374714e-06 -3.7896048308419525e-06 0.0000000000000000e+00  1.1228842480538492e-06 1.4736591194515270e-06 0.0000000000000000e+00  -2.7578274423999642e-06 1.4496563688917522e-06 0.0000000000000000e+00  5.9754302568320371e-06 -3.8171272024087845e-06 0.0000000000000000e+00  1.8528143417256230e-05 1.3271178469243204e-06 0.0000000000000000e+00  1.7605614750149489e-05 -4.0426663887757093e-06 0.0000000000000000e+00  8.9599765537709420e-06 3.8604998922810512e-06 0.0000000000000000e+00  -9.8428494534566521e-07 -7.5571731734031744e-06 0.0000000000000000e+00  -3.8958096516613426e-06 6.7569479974493510e-06 0.0000000000000000e+00  -1.0726459185336385e-05 5.2204331769348424e-06 0.0000000000000000e+00  -7.6229602754112537e-06 5.5595634395704345e-06 0.0000000000000000e+00  -5.5464358703168156e-06 1.4081823891816800e-05 0.0000000000000000e+00  -1.2894678027197117e-05 1.1025019033129389e-05 0.0000000000000000e+00  9.0886769928949802e-08 2.8084188516525264e-05 0.0000000000000000e+00  -6.8550936237998719e-06 3.1824673371884943e-05 0.0000000000000000e+00  2.2980262494887042e-06 3.5922546188555138e-05 0.0000000000000000e+00  -7.0924683530411321e-06 1.5983739787343932e-05 0.0000000000000000e+00  2.0298429216160100e-06 9.8566697070243729e-06 0.0000000000000000e+00  9.1799775599149891e-07 1.3041201025606822e-05 0.0000000000000000e+00  -2.6161443443200262e-06 5.8631803393946394e-06 0.0000000000000000e+00  9.5598400375115679e-07 4.9369773394769291e-06 0.0000000000000000e+00  -5.4513863864040969e-06 3.0704650982636635e-06 0.0000000000000000e+00  -1.1952724224231939e-06 2.7107100168301294e-07 0.0000000000000000e+00  2.3661982874992299e-06 -8.6062621026976704e-07 0.0000000000000000e+00  2.7156273565437112e-07 2.6282413342516767e-06 0.0000000000000000e+00  -2.9948366429378823e-07 -7.0429492405464269e-08 0.0000000000000000e+00  -6.3711158722989920e-08 1.0437923665803852e-06 0.0000000000000000e+00  4.2690598014979304e-07 -2.0171552450020364e-06 0.0000000000000000e+00  -1.6970441321953099e-06 2.9381444265595494e-06 0.0000000000000000e+00  -2.5669996807348928e-06 2.0051644904941383e-06 0.0000000000000000e+00  -4.2152957730443808e-08 8.6480142759246498e-07 0.0000000000000000e+00  -6.1752951210726767e-08 -6.0946637107297965e-07 0.0000000000000000e+00  2.4229227108265395e-06 1.8929986295032137e-07 0.0000000000000000e+00  -1.6218897927201500e-07 3.9083100217926049e-07 0.0000000000000000e+00  3.4761926299815012e-06 3.4024765245260460e-06 0.0000000000000000e+00  -8.5852358726612635e-06 -8.9894059678140563e-06 0.0000000000000000e+00  3.9838156207819344e-06 -2.1120094645555967e-05 0.0000000000000000e+00  2.4716448035869059e-06 -1.7615707004585166e-05 0.0000000000000000e+00  -2.9618081148130569e-06 -1.9497046496764036e-05 0.0000000000000000e+00  2.2784080056200232e-05 -8.7769191328975781e-06 0.0000000000000000e+00  -2.9766025765692530e-05 -8.0719080418571959e-05 0.0000000000000000e+00  2.5471778101921908e-05 -1.5856780354471623e-04 0.0000000000000000e+00  5.6994936154444536e-05 -9.0350818403241200e-05 0.0000000000000000e+00  -1.2349816645246438e-04 -2.8535613613146885e-04 0.0000000000000000e+00  7.6082329045437064e-05 -5.7391120776569384e-04 0.0000000000000000e+00  1.5834011114570406e-04 -3.7962405766308981e-04 0.0000000000000000e+00  -3.7642015593994740e-04 -8.6920377373023345e-04 0.0000000000000000e+00  2.0273552207225934e-04 -1.7304113499573611e-03 0.0000000000000000e+00  4.1270860670294978e-04 -1.2051608238824083e-03 0.0000000000000000e+00  -9.3883813781232622e-04 -2.4471378468605151e-03 0.0000000000000000e+00  4.4167439579203031e-04 -5.4366776807834097e-03 0.0000000000000000e+00  8.9608344460069414e-04 -3.4001943661955119e-03 0.0000000000000000e+00  -3.8503914233693022e-03 -8.5930442580027296e-03 0.0000000000000000e+00  7.5827576125454463e-04 -1.5626869107332804e-02 0.0000000000000000e+00  8.5167990405966799e-04 -1.1749218756263785e-02 0.0000000000000000e+00  -9.7732222590219617e-03 -1.9212504398309509e-02 0.0000000000000000e+00  -5.9121983492807307e-03 -3.1947577508099977e-02 0.0000000000000000e+00  -5.9316687637108335e-03 -2.4748932351215565e-02 0.0000000000000000e+00  -2.2570498168592391e-02 -3.5941973934882597e-02 0.0000000000000000e+00  -1.0778483249115131e-02 -4.0272430552965692e-02 0.0000000000000000e+00  -3.9111831924926989e-02 -4.5297853580738394e-02 0.0000000000000000e+00  -3.7857845926993358e-02 -6.4864339195716811e-02 0.0000000000000000e+00  -3.8410567638177837e-02 -5.3661423113983572e-02 0.0000000000000000e+00  -6.3588359290513596e-02 -5.7663523452799702e-02 0.0000000000000000e+00  -5.8281459774718387e-02 -7.1092917687452739e-02 0.0000000000000000e+00  -6.8724444423035047e-02 -6.0764463662686424e-02 0.0000000000000000e+00  -7.0682650495983407e-02 -7.6582328144927075e-02 0.0000000000000000e+00  -6.6011604916098310e-02 -7.2030110684068227e-02 0.0000000000000000e+00  -8.0544165696568332e-02 -7.6786544000852150e-02 0.0000000000000000e+00  -8.2899751528183740e-02 -7.8940990629980376e-02 0.0000000000000000e+00  -9.0135987814544197e-02 -9.6042536072405912e-02 0.0000000000000000e+00  -8.4599463088757709e-02 -9.0973991138844967e-02 0.0000000000000000e+00  -9.9387287834346805e-02 -9.4109020488121628e-02 0.0000000000000000e+00  -9.1982067856412969e-02 -1.0044538484959699e-01 0.0000000000000000e+00  -1.1023138188551387e-01 -1.0665480269025299e-01 0.0000000000000000e+00  -1.1595752683803442e-01 -1.0916502974607650e-01 0.0000000000000000e+00  -1.2178493518219326e-01 -1.3109028772381606e-01 0.0000000000000000e+00  -1.1366023209544712e-01 -1.2407538852637455e-01 0.0000000000000000e+00  -1.4031758793557167e-01 -1.3022944800148004e-01 0.0000000000000000e+00  -1.2360956694683690e-01 -1.4488235904277291e-01 0.0000000000000000e+00  -1.5817858410011551e-01 -1.4029890424759076e-01 0.0000000000000000e+00  -1.5602240594329167e-01 -1.7748042547739040e-01 0.0000000000000000e+00  -1.4180989545765180e-01 -1.6864073778222011e-01 0.0000000000000000e+00  -2.0081467384082904e-01 -1.6681972650949153e-01 0.0000000000000000e+00  -2.0973632035577863e-01 -2.3819618354117567e-01 0.0000000000000000e+00  1.1143816145328896e+09 1.1958209264530728e+09 0.0000000000000000e+00  1.2581424655108931e+09 2.1075799630550818e+09 0.0000000000000000e+00  -2.9678239456151112e-01 -2.2588921003039367e-01 0.0000000000000000e+00  -4.0880025426502431e-01 -1.2482324216765307e-01 0.0000000000000000e+00  1.3606563448042770e-06 7.2325762020822832e-06 0.0000000000000000e+00  -2.4599827329333623e-01 -1.4015218556379376e-04 0.0000000000000000e+00  -4.0167319336553674e-03 1.2353920463372635e-03 0.0000000000000000e+00  -4.1966080120552588e-03 -1.2450562193319851e-03 0.0000000000000000e+00  -6.4987311339910178e-06 -1.5811603610581048e-05 0.0000000000000000e+00  3.6182946919121619e-07 3.6092382246656712e-06 0.0000000000000000e+00  -1.1352935228738156e-01 3.8151767138205300e-03 0.0000000000000000e+00  5.0084582310982221e-06 1.1172163661142026e-05 0.0000000000000000e+00  -2.3790897000362836e-06 4.2190953696719364e-06 0.0000000000000000e+00  -1.1440629493587934e-01 -7.9848108065134291e-03 0.0000000000000000e+00  -5.8993022373033792e-06 2.1020850452225670e-05 0.0000000000000000e+00  -5.8319589821548612e-06 -1.4380702985428915e-06 0.0000000000000000e+00  8.0678132688845153e-06 2.9609639456003093e-06 0.0000000000000000e+00  6.5948340740712337e-07 -8.0336135687039256e-06 0.0000000000000000e+00  -4.9482751391059183e-02 6.9570944119770311e-03 0.0000000000000000e+00  -6.4207201943996794e-08 4.8094076369544200e-06 0.0000000000000000e+00  -9.6331159350321929e-05 1.1732227149648221e-05 0.0000000000000000e+00  -6.7834220332366222e-07 -6.5412898994121606e-06 0.0000000000000000e+00  -8.9890508063485443e-05 -3.7783077941555574e-05 0.0000000000000000e+00  -5.0166376167217246e-02 -8.7750281614867500e-03 0.0000000000000000e+00  -1.9577630413312404e-02 5.8130384438440010e-03 0.0000000000000000e+00  -8.2773470276953893e-08 6.0131699622013791e-06 0.0000000000000000e+00  -5.7950675265391579e-04 2.2161071941148946e-04 0.0000000000000000e+00  -6.5196076817331668e-06 -7.1161480026342928e-06 0.0000000000000000e+00  1.1540616309425656e-06 -9.0456185109719337e-06 0.0000000000000000e+00  -6.4295427667691418e-04 -2.4998871858729793e-04 0.0000000000000000e+00  -6.0141570923881738e-06 -1.0223471665248693e-05 0.0000000000000000e+00  -1.9310468044961459e-02 -4.2745394817923811e-03 0.0000000000000000e+00  -2.0632396844495257e-01 1.0388539240561490e-03 0.0000000000000000e+00  -2.0287607601000723e-01 1.2497601365589689e-03 0.0000000000000000e+00  -1.6295968377454517e-01 -4.7734227710575323e-03 0.0000000000000000e+00  -1.6413880910288420e-01 3.4793009928366218e-03 0.0000000000000000e+00  -1.7528209300079906e-01 -4.2425652735253998e-02 0.0000000000000000e+00  -1.8209288615232314e-01 4.2757362366661653e-02 0.0000000000000000e+00  -2.3418043103426961e-01 -3.4259649580890415e-02 0.0000000000000000e+00  -2.3756833294646049e-01 3.2571002690492623e-02 0.0000000000000000e+00  -1.8466422850225159e-01 -6.5469535391422492e-04 0.0000000000000000e+00  -1.8674407642244903e-01 -1.0583921772438305e-03 0.0000000000000000e+00  -1.2222228142031141e-01 4.3825144047959959e-02 0.0000000000000000e+00  -1.2860379450901602e-01 -4.5538687810241181e-02 0.0000000000000000e+00  -8.2726707937475066e-02 -5.2604186384692117e-03 0.0000000000000000e+00  -8.4707166230192588e-02 4.2302815521524928e-03 0.0000000000000000e+00  -2.3173238915248204e-01 -2.0991723654215509e-03 0.0000000000000000e+00  -2.2883568265764140e-01 7.3698448024474847e-04 0.0000000000000000e+00  -2.8193000828964065e-01 1.6695357679668771e-03 0.0000000000000000e+00  -1.7778158271207808e-01 -1.3477932159799562e-02 0.0000000000000000e+00  -1.9022824322591189e-01 1.2828901013807856e-02 0.0000000000000000e+00  -1.4131718557361800e-01 5.5619265201575369e-03 0.0000000000000000e+00  -1.7455674753708481e-01 1.2631717478726789e-03 0.0000000000000000e+00  -1.5606078534440762e-01 2.3642926328171249e-02 0.0000000000000000e+00  -1.4055726492116863e-01 -4.9905691404005742e-03 0.0000000000000000e+00  -2.0866243393245901e-01 8.5772675102215992e-02 0.0000000000000000e+00  -1.5524632655966913e-01 -2.3096008726036260e-02 0.0000000000000000e+00  -2.1051197191414336e-01 -7.9753215314167750e-02 0.0000000000000000e+00  -2.0517360951952324e-01 -2.6028791457275623e-02 0.0000000000000000e+00  -1.5198184482088328e-01 -7.7652868050794702e-02 0.0000000000000000e+00  -1.6144401042426884e-01 7.5618013809262280e-02 0.0000000000000000e+00  -9.0191873774983972e-02 4.1130948876215753e-02 0.0000000000000000e+00  -8.7411417957571180e-02 -3.8431319222850251e-02 0.0000000000000000e+00  -8.6998521215854469e-06 4.5267212618722730e-06 0.0000000000000000e+00  -4.4409719396865053e-06 9.1676031604217162e-06 0.0000000000000000e+00  -1.7509565843675046e-01 -1.4487012399041100e-03 0.0000000000000000e+00  -2.1232645975668621e-01 1.9622133184914986e-02 0.0000000000000000e+00  -1.8081737308660037e-01 6.5379712625380018e-03 0.0000000000000000e+00  -2.7462871902462016e-01 -6.0220080742942494e-02 0.0000000000000000e+00  -2.4615525091710597e-01 -7.0599900384937606e-03 0.0000000000000000e+00  -2.4551908518815921e-01 8.3652352387838073e-03 0.0000000000000000e+00  -2.6378319505927428e-01 6.6519123169688887e-02 0.0000000000000000e+00  -1.9334996575776175e-01 -9.7177066151428650e-03 0.0000000000000000e+00  -1.3593610015731428e-01 2.3393815554825181e-02 0.0000000000000000e+00  -1.3141931699856110e-01 -1.8799461588294535e-02 0.0000000000000000e+00  -2.0968679272711216e-01 4.3741389824540566e-02 0.0000000000000000e+00  -1.7564690365793229e-01 1.8727035208502125e-02 0.0000000000000000e+00  -1.0255302800188597e-01 -6.2600037508417958e-02 0.0000000000000000e+00  -2.1795817109534554e-01 -1.59552